/*--------------------------------*- C++ -*----------------------------------*\
| =========                 |                                                 |
| \\      /  F ield         | OpenFOAM: The Open Source CFD Toolbox           |
|  \\    /   O peration     | Version:  2.1.1                                 |
|   \\  /    A nd           | Web:      www.OpenFOAM.org                      |
|    \\/     M anipulation  |                                                 |
\*---------------------------------------------------------------------------*/
FoamFile
{
    version     2.0;
    format      ascii;
    class       volScalarField;
    location    "4800";
    object      epsilon;
}
// * * * * * * * * * * * * * * * * * * * * * * * * * * * * * * * * * * * * * //

dimensions      [0 2 -3 0 0 0 0];

internalField   nonuniform List<scalar> 
54800
(
696.649
978.349
1260.52
1507.4
1705.73
1855.7
1963.3
2036.09
2081.32
2105.21
2112.78
2108.01
2093.99
2073.12
2047.27
2017.87
1986.04
1952.65
1918.37
1883.71
1849.06
1814.72
1780.93
1747.84
1715.57
1684.22
1653.83
1624.44
1596.07
1568.72
1542.39
1517.06
1492.7
1469.31
1446.84
1425.27
1404.57
1384.7
1365.64
1347.35
1329.8
1312.97
1296.81
1281.31
1266.43
1252.15
1238.44
1225.27
1212.63
1200.49
1188.82
1177.62
1166.84
1156.49
1146.53
1136.96
1127.75
1118.89
1110.37
1102.16
1094.27
1086.66
1079.34
1072.29
1065.49
1058.95
1052.64
1046.56
1040.7
1035.05
1029.6
1024.34
1019.27
1014.38
1009.66
1005.11
1000.71
996.465
992.366
988.409
984.587
980.895
977.329
973.884
970.555
967.338
964.23
961.224
958.32
955.511
952.796
950.17
947.631
945.175
942.799
940.501
938.278
936.127
934.046
932.032
930.083
928.197
926.372
924.605
922.895
921.239
919.637
918.085
916.583
915.129
913.721
912.358
911.039
909.762
908.525
907.328
906.169
905.047
903.961
902.91
901.892
900.907
899.955
899.032
898.14
897.277
896.441
895.633
894.851
894.095
893.364
892.657
891.973
891.311
890.672
890.054
889.456
888.879
888.32
887.781
887.26
886.756
886.269
885.798
885.344
884.905
884.481
884.071
883.675
883.293
882.923
882.566
882.222
881.889
881.568
881.257
880.957
880.668
880.388
880.118
879.857
879.605
879.362
879.126
878.899
878.68
878.468
878.264
878.066
877.875
877.691
877.512
877.34
877.174
877.013
728.413
1053.69
1362.51
1622.53
1824.38
1971.88
2073.8
2139.59
2177.58
2194.51
2195.63
2184.98
2165.64
2139.98
2109.82
2076.53
2041.21
2004.67
1967.53
1930.29
1893.31
1856.86
1821.14
1786.3
1752.44
1719.63
1687.9
1657.3
1627.81
1599.43
1572.14
1545.94
1520.77
1496.63
1473.47
1451.26
1429.96
1409.54
1389.96
1371.19
1353.19
1335.93
1319.39
1303.52
1288.29
1273.69
1259.67
1246.22
1233.31
1220.91
1209.01
1197.57
1186.59
1176.03
1165.88
1156.13
1146.75
1137.73
1129.05
1120.7
1112.66
1104.93
1097.48
1090.31
1083.4
1076.75
1070.33
1064.16
1058.2
1052.46
1046.92
1041.58
1036.44
1031.47
1026.68
1022.05
1017.59
1013.28
1009.12
1005.1
1001.23
997.48
993.862
990.366
986.989
983.725
980.571
977.523
974.576
971.727
968.972
966.308
963.731
961.239
958.828
956.496
954.239
952.055
949.942
947.896
945.916
943.999
942.144
940.347
938.607
936.922
935.291
933.711
932.181
930.698
929.263
927.872
926.525
925.22
923.956
922.732
921.546
920.397
919.284
918.206
917.162
916.151
915.172
914.223
913.305
912.416
911.555
910.721
909.914
909.133
908.377
907.646
906.938
906.252
905.589
904.948
904.328
903.727
903.147
902.585
902.042
901.517
901.009
900.518
900.044
899.585
899.141
898.712
898.298
897.897
897.51
897.135
896.774
896.424
896.086
895.76
895.444
895.139
894.844
894.56
894.284
894.018
893.761
893.513
893.273
893.041
892.817
892.6
892.391
892.188
891.993
891.804
891.621
891.444
891.274
788.533
1193.99
1549.65
1830.57
2035.73
2176.33
2266.51
2318.99
2343.77
2348.34
2338.2
2317.4
2288.95
2255.13
2217.65
2177.8
2136.58
2094.73
2052.81
2011.25
1970.36
1930.37
1891.43
1853.67
1817.14
1781.89
1747.95
1715.3
1683.94
1653.84
1624.98
1597.31
1570.8
1545.41
1521.09
1497.81
1475.51
1454.17
1433.73
1414.15
1395.41
1377.45
1360.24
1343.76
1327.96
1312.81
1298.29
1284.36
1270.99
1258.17
1245.87
1234.05
1222.71
1211.81
1201.35
1191.29
1181.62
1172.33
1163.39
1154.8
1146.53
1138.57
1130.91
1123.54
1116.44
1109.6
1103.02
1096.67
1090.56
1084.66
1078.98
1073.51
1068.23
1063.13
1058.22
1053.48
1048.9
1044.49
1040.22
1036.11
1032.14
1028.3
1024.59
1021.01
1017.56
1014.21
1010.98
1007.86
1004.85
1001.93
999.107
996.378
993.739
991.186
988.716
986.326
984.013
981.774
979.606
977.508
975.476
973.507
971.601
969.755
967.966
966.232
964.553
962.925
961.347
959.818
958.335
956.898
955.505
954.153
952.843
951.573
950.341
949.147
947.989
946.865
945.776
944.72
943.696
942.703
941.74
940.807
939.902
939.025
938.175
937.351
936.552
935.778
935.028
934.301
933.597
932.915
932.254
931.614
930.994
930.394
929.813
929.25
928.705
928.178
927.667
927.173
926.695
926.232
925.784
925.35
924.931
924.525
924.132
923.752
923.385
923.029
922.685
922.353
922.031
921.719
921.418
921.127
920.845
920.573
920.309
920.054
919.807
919.569
919.338
919.115
918.899
918.69
918.488
918.292
918.103
880.183
1403.48
1823.14
2127.91
2331.72
2458.03
2528.96
2561.47
2567.44
2554.95
2529.55
2495.18
2454.67
2410.1
2363.03
2314.62
2265.72
2216.98
2168.86
2121.72
2075.78
2031.22
1988.14
1946.61
1906.65
1868.28
1831.47
1796.2
1762.43
1730.13
1699.22
1669.68
1641.44
1614.44
1588.64
1563.97
1540.4
1517.86
1496.31
1475.7
1455.98
1437.12
1419.07
1401.79
1385.25
1369.4
1354.22
1339.67
1325.73
1312.36
1299.53
1287.23
1275.42
1264.09
1253.21
1242.76
1232.72
1223.08
1213.8
1204.89
1196.32
1188.07
1180.14
1172.51
1165.16
1158.09
1151.28
1144.72
1138.4
1132.31
1126.44
1120.78
1115.33
1110.07
1105
1100.11
1095.39
1090.84
1086.44
1082.2
1078.1
1074.15
1070.33
1066.64
1063.08
1059.63
1056.31
1053.09
1049.98
1046.97
1044.07
1041.26
1038.54
1035.9
1033.36
1030.89
1028.51
1026.2
1023.96
1021.79
1019.69
1017.66
1015.69
1013.78
1011.92
1010.13
1008.38
1006.7
1005.06
1003.47
1001.92
1000.43
998.971
997.56
996.19
994.86
993.569
992.315
991.097
989.914
988.765
987.65
986.566
985.514
984.492
983.499
982.535
981.599
980.691
979.808
978.951
978.119
977.312
976.528
975.767
975.029
974.313
973.617
972.943
972.289
971.654
971.038
970.441
969.862
969.301
968.757
968.229
967.718
967.222
966.742
966.276
965.825
965.387
964.964
964.553
964.156
963.771
963.397
963.036
962.686
962.347
962.018
961.7
961.392
961.094
960.805
960.525
960.254
959.992
959.738
959.492
959.253
959.023
958.799
958.583
1010.9
1695.05
2193.33
2519.19
2711.82
2813.18
2855.87
2861.44
2843.22
2809.43
2765.33
2714.52
2659.5
2602.08
2543.61
2485.04
2427.07
2370.21
2314.8
2261.09
2209.23
2159.31
2111.38
2065.43
2021.46
1979.42
1939.26
1900.92
1864.33
1829.44
1796.15
1764.41
1734.13
1705.25
1677.71
1651.43
1626.35
1602.41
1579.56
1557.73
1536.88
1516.96
1497.91
1479.7
1462.28
1445.61
1429.66
1414.38
1399.75
1385.74
1372.3
1359.43
1347.08
1335.23
1323.86
1312.95
1302.47
1292.41
1282.74
1273.46
1264.53
1255.95
1247.69
1239.75
1232.11
1224.76
1217.68
1210.87
1204.31
1197.99
1191.9
1186.03
1180.38
1174.93
1169.67
1164.6
1159.71
1154.99
1150.44
1146.05
1141.81
1137.72
1133.76
1129.95
1126.26
1122.7
1119.25
1115.93
1112.71
1109.6
1106.59
1103.68
1100.87
1098.14
1095.51
1092.95
1090.48
1088.09
1085.77
1083.52
1081.34
1079.23
1077.18
1075.2
1073.27
1071.4
1069.59
1067.82
1066.11
1064.45
1062.84
1061.27
1059.74
1058.26
1056.82
1055.42
1054.05
1052.73
1051.44
1050.18
1048.96
1047.78
1046.62
1045.5
1044.4
1043.34
1042.3
1041.29
1040.31
1039.35
1038.43
1037.52
1036.64
1035.78
1034.95
1034.14
1033.35
1032.59
1031.84
1031.12
1030.41
1029.73
1029.06
1028.42
1027.79
1027.18
1026.59
1026.01
1025.45
1024.91
1024.38
1023.87
1023.37
1022.89
1022.42
1021.96
1021.52
1021.09
1020.68
1020.27
1019.88
1019.5
1019.13
1018.78
1018.43
1018.09
1017.77
1017.45
1017.15
1016.85
1016.56
1016.28
1016.01
1015.75
1015.49
1192.67
2088.82
2676.51
3013.29
3179.04
3241.76
3246.21
3217.86
3170.44
3111.52
3045.7
2975.95
2904.33
2832.31
2760.9
2690.85
2622.65
2556.64
2493.03
2431.94
2373.42
2317.49
2264.1
2213.2
2164.72
2118.57
2074.65
2032.86
1993.12
1955.32
1919.35
1885.14
1852.58
1821.59
1792.09
1763.99
1737.22
1711.71
1687.39
1664.2
1642.07
1620.95
1600.79
1581.53
1563.12
1545.53
1528.71
1512.62
1497.22
1482.47
1468.35
1454.83
1441.87
1429.44
1417.53
1406.1
1395.13
1384.6
1374.49
1364.79
1355.46
1346.5
1337.88
1329.6
1321.63
1313.97
1306.59
1299.5
1292.66
1286.09
1279.75
1273.65
1267.77
1262.1
1256.63
1251.37
1246.29
1241.39
1236.66
1232.1
1227.7
1223.46
1219.36
1215.4
1211.57
1207.87
1204.3
1200.85
1197.52
1194.29
1191.17
1188.15
1185.23
1182.41
1179.67
1177.02
1174.46
1171.97
1169.56
1167.22
1164.96
1162.76
1160.63
1158.56
1156.55
1154.59
1152.7
1150.85
1149.06
1147.32
1145.62
1143.97
1142.37
1140.8
1139.28
1137.8
1136.36
1134.95
1133.58
1132.24
1130.94
1129.67
1128.43
1127.22
1126.04
1124.89
1123.76
1122.67
1121.6
1120.56
1119.54
1118.55
1117.58
1116.63
1115.71
1114.81
1113.94
1113.08
1112.25
1111.44
1110.65
1109.87
1109.12
1108.39
1107.67
1106.98
1106.3
1105.64
1105
1104.37
1103.76
1103.17
1102.59
1102.03
1101.48
1100.95
1100.43
1099.93
1099.44
1098.97
1098.5
1098.05
1097.62
1097.19
1096.78
1096.38
1095.99
1095.61
1095.24
1094.89
1094.54
1094.2
1093.88
1093.56
1093.25
1443.16
2612.57
3293.74
3621.52
3738.53
3746.59
3702.55
3633.7
3552.52
3465.09
3374.84
3283.94
3193.87
3105.64
3019.94
2937.22
2857.74
2781.66
2709.03
2639.82
2574
2511.45
2452.07
2395.74
2342.3
2291.62
2243.57
2198
2154.78
2113.78
2074.88
2037.94
2002.88
1969.57
1937.91
1907.81
1879.19
1851.95
1826.02
1801.32
1777.79
1755.36
1733.97
1713.56
1694.07
1675.47
1657.69
1640.7
1624.46
1608.93
1594.06
1579.83
1566.2
1553.14
1540.63
1528.64
1517.14
1506.1
1495.51
1485.35
1475.59
1466.22
1457.21
1448.56
1440.24
1432.24
1424.55
1417.14
1410.02
1403.17
1396.57
1390.21
1384.09
1378.19
1372.51
1367.03
1361.75
1356.66
1351.75
1347.01
1342.44
1338.03
1333.77
1329.66
1325.69
1321.85
1318.15
1314.56
1311.1
1307.75
1304.52
1301.38
1298.35
1295.42
1292.58
1289.83
1287.16
1284.57
1282.07
1279.64
1277.28
1274.99
1272.76
1270.6
1268.5
1266.46
1264.48
1262.55
1260.67
1258.84
1257.05
1255.32
1253.62
1251.97
1250.36
1248.79
1247.25
1245.75
1244.29
1242.86
1241.46
1240.09
1238.76
1237.45
1236.17
1234.92
1233.7
1232.5
1231.33
1230.19
1229.07
1227.97
1226.89
1225.84
1224.81
1223.81
1222.82
1221.86
1220.92
1219.99
1219.09
1218.21
1217.35
1216.5
1215.68
1214.87
1214.09
1213.32
1212.56
1211.83
1211.11
1210.41
1209.73
1209.07
1208.42
1207.78
1207.16
1206.56
1205.97
1205.4
1204.84
1204.29
1203.76
1203.25
1202.74
1202.25
1201.78
1201.31
1200.86
1200.42
1199.99
1199.57
1199.17
1198.77
1198.39
1788.05
3303.07
4070.52
4357.23
4397.79
4333.99
4231.72
4116.49
3997.52
3878.49
3761.31
3647.19
3536.91
3430.98
3329.68
3233.13
3141.37
3054.31
2971.85
2893.81
2820.02
2750.27
2684.37
2622.11
2563.27
2507.68
2455.12
2405.43
2358.43
2313.95
2271.84
2231.96
2194.16
2158.33
2124.33
2092.07
2061.43
2032.32
2004.65
1978.33
1953.28
1929.44
1906.72
1885.07
1864.43
1844.74
1825.95
1808
1790.86
1774.48
1758.81
1743.83
1729.5
1715.78
1702.64
1690.05
1677.99
1666.42
1655.33
1644.69
1634.48
1624.69
1615.28
1606.24
1597.55
1589.21
1581.19
1573.47
1566.05
1558.91
1552.04
1545.43
1539.07
1532.93
1527.03
1521.34
1515.86
1510.57
1505.47
1500.56
1495.82
1491.24
1486.83
1482.57
1478.45
1474.48
1470.64
1466.93
1463.35
1459.88
1456.52
1453.28
1450.14
1447.1
1444.15
1441.3
1438.53
1435.85
1433.24
1430.72
1428.27
1425.88
1423.57
1421.32
1419.12
1416.99
1414.92
1412.89
1410.92
1409
1407.12
1405.29
1403.5
1401.76
1400.05
1398.38
1396.74
1395.14
1393.58
1392.04
1390.54
1389.07
1387.62
1386.2
1384.81
1383.45
1382.11
1380.8
1379.51
1378.24
1376.99
1375.77
1374.57
1373.39
1372.23
1371.1
1369.98
1368.88
1367.8
1366.74
1365.7
1364.68
1363.68
1362.7
1361.73
1360.79
1359.86
1358.95
1358.05
1357.18
1356.32
1355.48
1354.65
1353.85
1353.06
1352.28
1351.53
1350.79
1350.06
1349.36
1348.66
1347.99
1347.33
1346.68
1346.05
1345.43
1344.83
1344.25
1343.67
1343.12
1342.57
1342.04
1341.52
1341.01
1340.52
2264.77
4208.51
5037.23
5236.4
5168.14
5015.53
4846.45
4679.75
4519.31
4365.73
4219.18
4079.77
3947.5
3822.31
3704.04
3592.48
3487.36
3388.38
3295.23
3207.59
3125.15
3047.58
2974.6
2905.9
2841.21
2780.27
2722.84
2668.68
2617.59
2569.35
2523.78
2480.72
2439.98
2401.44
2364.94
2330.35
2297.56
2266.46
2236.93
2208.89
2182.24
2156.9
2132.79
2109.84
2087.99
2067.17
2047.31
2028.38
2010.31
1993.06
1976.58
1960.83
1945.78
1931.38
1917.61
1904.42
1891.8
1879.71
1868.12
1857.01
1846.36
1836.15
1826.34
1816.93
1807.9
1799.22
1790.89
1782.88
1775.18
1767.77
1760.65
1753.8
1747.21
1740.86
1734.75
1728.87
1723.2
1717.74
1712.48
1707.4
1702.51
1697.79
1693.24
1688.85
1684.6
1680.51
1676.55
1672.73
1669.04
1665.46
1662.01
1658.66
1655.43
1652.29
1649.26
1646.31
1643.46
1640.69
1638
1635.38
1632.85
1630.38
1627.98
1625.64
1623.36
1621.14
1618.98
1616.87
1614.8
1612.79
1610.82
1608.89
1607.01
1605.16
1603.35
1601.58
1599.84
1598.13
1596.45
1594.8
1593.18
1591.59
1590.02
1588.48
1586.96
1585.46
1583.99
1582.54
1581.11
1579.7
1578.31
1576.94
1575.58
1574.25
1572.93
1571.63
1570.35
1569.09
1567.84
1566.62
1565.4
1564.21
1563.03
1561.87
1560.72
1559.59
1558.48
1557.38
1556.3
1555.24
1554.19
1553.16
1552.15
1551.15
1550.17
1549.21
1548.26
1547.33
1546.42
1545.53
1544.65
1543.78
1542.94
1542.11
1541.3
1540.5
1539.72
1538.96
1538.22
1537.48
1536.77
1536.07
1535.39
1534.72
1534.07
2928.54
5392.11
6230.56
6279.93
6067.81
5811.13
5568.12
5345.41
5139.9
4948.75
4770.23
4603.27
4447.06
4300.9
4164.16
4036.24
3916.57
3804.6
3699.82
3601.73
3509.87
3423.8
3343.12
3267.44
3196.41
3129.7
3067
3008.04
2952.54
2900.27
2851.01
2804.55
2760.7
2719.28
2680.14
2643.11
2608.07
2574.89
2543.44
2513.62
2485.33
2458.46
2432.95
2408.69
2385.62
2363.67
2342.77
2322.86
2303.88
2285.79
2268.53
2252.05
2236.32
2221.29
2206.93
2193.2
2180.06
2167.49
2155.46
2143.94
2132.9
2122.32
2112.18
2102.45
2093.12
2084.17
2075.58
2067.33
2059.4
2051.79
2044.47
2037.44
2030.67
2024.16
2017.9
2011.88
2006.08
2000.49
1995.11
1989.93
1984.94
1980.12
1975.48
1970.99
1966.67
1962.5
1958.47
1954.57
1950.81
1947.17
1943.65
1940.24
1936.94
1933.75
1930.65
1927.65
1924.73
1921.9
1919.15
1916.48
1913.88
1911.34
1908.88
1906.47
1904.12
1901.83
1899.59
1897.4
1895.26
1893.16
1891.1
1889.09
1887.11
1885.16
1883.25
1881.37
1879.51
1877.69
1875.89
1874.12
1872.37
1870.65
1868.94
1867.26
1865.59
1863.95
1862.32
1860.7
1859.11
1857.53
1855.96
1854.41
1852.87
1851.35
1849.84
1848.35
1846.86
1845.39
1843.93
1842.49
1841.06
1839.64
1838.23
1836.84
1835.45
1834.09
1832.73
1831.39
1830.06
1828.75
1827.44
1826.16
1824.89
1823.63
1822.39
1821.16
1819.95
1818.75
1817.58
1816.41
1815.27
1814.14
1813.03
1811.94
1810.86
1809.8
1808.76
1807.74
1806.74
1805.75
1804.78
1803.84
1802.91
1801.99
1801.1
3862.45
6938.23
7696.94
7518.22
7127.3
6754.02
6431.18
6148.02
5893.55
5661.39
5447.91
5250.81
5068.37
4899.23
4742.24
4596.4
4460.79
4334.61
4217.11
4107.61
4005.49
3910.18
3821.15
3737.92
3660.05
3587.13
3518.8
3454.71
3394.55
3338.02
3284.88
3234.88
3187.79
3143.42
3101.57
3062.07
3024.77
2989.51
2956.17
2924.61
2894.72
2866.4
2839.54
2814.06
2789.87
2766.89
2745.04
2724.27
2704.51
2685.69
2667.77
2650.7
2634.41
2618.88
2604.06
2589.91
2576.4
2563.49
2551.14
2539.34
2528.04
2517.23
2506.89
2496.98
2487.48
2478.38
2469.65
2461.28
2453.26
2445.55
2438.15
2431.05
2424.23
2417.67
2411.37
2405.31
2399.48
2393.87
2388.48
2383.28
2378.28
2373.46
2368.81
2364.33
2360.01
2355.84
2351.82
2347.93
2344.18
2340.54
2337.03
2333.63
2330.33
2327.14
2324.04
2321.04
2318.12
2315.28
2312.52
2309.83
2307.21
2304.66
2302.17
2299.73
2297.35
2295.01
2292.73
2290.49
2288.28
2286.12
2283.99
2281.9
2279.83
2277.8
2275.79
2273.8
2271.84
2269.89
2267.97
2266.07
2264.18
2262.3
2260.44
2258.6
2256.76
2254.94
2253.13
2251.32
2249.53
2247.74
2245.96
2244.19
2242.42
2240.67
2238.91
2237.17
2235.43
2233.69
2231.96
2230.24
2228.52
2226.81
2225.11
2223.41
2221.71
2220.03
2218.35
2216.68
2215.01
2213.35
2211.71
2210.07
2208.44
2206.82
2205.21
2203.61
2202.02
2200.45
2198.89
2197.34
2195.81
2194.29
2192.79
2191.3
2189.83
2188.38
2186.95
2185.54
2184.15
2182.77
2181.42
2180.09
2178.77
2177.48
2176.21
5194.86
8962.7
9499.64
8999.89
8398.42
7899.13
7491.03
7142.34
6834.19
6556.83
6304.75
6074.32
5862.87
5668.32
5488.95
5323.32
5170.15
5028.34
4896.89
4774.93
4661.64
4556.31
4458.28
4366.95
4281.79
4202.31
4128.05
4058.62
3993.63
3932.76
3875.7
3822.15
3771.86
3724.6
3680.15
3638.31
3598.9
3561.74
3526.69
3493.6
3462.34
3432.8
3404.85
3378.39
3353.34
3329.59
3307.08
3285.72
3265.44
3246.18
3227.88
3210.48
3193.92
3178.16
3163.16
3148.86
3135.24
3122.24
3109.85
3098.02
3086.72
3075.93
3065.62
3055.77
3046.34
3037.32
3028.69
3020.43
3012.52
3004.93
2997.67
2990.7
2984.01
2977.6
2971.45
2965.54
2959.86
2954.41
2949.17
2944.13
2939.28
2934.61
2930.12
2925.79
2921.61
2917.59
2913.71
2909.96
2906.33
2902.83
2899.44
2896.16
2892.98
2889.89
2886.89
2883.98
2881.15
2878.39
2875.7
2873.08
2870.51
2868.01
2865.55
2863.14
2860.78
2858.46
2856.17
2853.92
2851.69
2849.5
2847.33
2845.18
2843.05
2840.94
2838.84
2836.76
2834.68
2832.62
2830.56
2828.51
2826.47
2824.43
2822.39
2820.35
2818.31
2816.27
2814.23
2812.19
2810.15
2808.1
2806.05
2804
2801.94
2799.88
2797.81
2795.74
2793.66
2791.58
2789.49
2787.4
2785.3
2783.2
2781.1
2778.98
2776.87
2774.75
2772.63
2770.5
2768.37
2766.24
2764.11
2761.97
2759.84
2757.71
2755.57
2753.44
2751.32
2749.19
2747.07
2744.96
2742.86
2740.76
2738.68
2736.6
2734.54
2732.49
2730.45
2728.44
2726.44
2724.46
2722.5
2720.56
2718.64
2716.75
2714.88
7131.65
11632
11733.4
10808.5
9970.81
9338.49
8838.84
8417.96
8049.95
7722.02
7426.68
7158.9
6914.97
6692.01
6487.69
6300.06
6127.46
5968.44
5821.73
5686.2
5560.86
5444.8
5337.22
5237.39
5144.67
5058.46
4978.22
4903.47
4833.77
4768.72
4707.96
4651.15
4598
4548.22
4501.57
4457.82
4416.75
4378.17
4341.9
4307.78
4275.67
4245.41
4216.89
4189.99
4164.6
4140.62
4117.95
4096.52
4076.25
4057.05
4038.87
4021.63
4005.29
3989.78
3975.06
3961.08
3947.8
3935.17
3923.15
3911.72
3900.84
3890.47
3880.59
3871.17
3862.19
3853.62
3845.43
3837.62
3830.16
3823.02
3816.2
3809.68
3803.43
3797.45
3791.73
3786.24
3780.99
3775.94
3771.1
3766.46
3762
3757.71
3753.58
3749.62
3745.79
3742.11
3738.56
3735.13
3731.81
3728.61
3725.51
3722.5
3719.58
3716.74
3713.98
3711.29
3708.67
3706.11
3703.6
3701.14
3698.73
3696.35
3694.02
3691.72
3689.44
3687.19
3684.96
3682.75
3680.55
3678.36
3676.18
3674
3671.82
3669.64
3667.46
3665.28
3663.08
3660.88
3658.67
3656.45
3654.21
3651.96
3649.69
3647.41
3645.11
3642.79
3640.46
3638.1
3635.73
3633.33
3630.92
3628.48
3626.02
3623.54
3621.05
3618.53
3615.98
3613.42
3610.84
3608.23
3605.61
3602.96
3600.3
3597.61
3594.9
3592.17
3589.43
3586.66
3583.88
3581.07
3578.25
3575.41
3572.55
3569.68
3566.79
3563.88
3560.97
3558.04
3555.09
3552.14
3549.18
3546.21
3543.24
3540.26
3537.28
3534.31
3531.33
3528.36
3525.4
3522.45
3519.52
3516.6
3513.7
3510.82
3507.96
10020.5
15201.5
14555.5
13095.9
12004.5
11232.5
10632.1
10129.5
9693.18
9307.5
8962.82
8652.53
8371.75
8116.72
7884.39
7672.24
7478.15
7300.28
7137.03
6986.99
6848.91
6721.7
6604.37
6496.03
6395.88
6303.23
6217.41
6137.85
6064.04
5995.48
5931.76
5872.48
5817.28
5765.84
5717.87
5673.1
5631.28
5592.19
5555.62
5521.39
5489.33
5459.26
5431.06
5404.59
5379.72
5356.34
5334.35
5313.66
5294.17
5275.8
5258.48
5242.14
5226.71
5212.13
5198.36
5185.33
5173
5161.33
5150.28
5139.8
5129.86
5120.43
5111.48
5102.99
5094.91
5087.23
5079.93
5072.98
5066.37
5060.06
5054.06
5048.33
5042.87
5037.66
5032.68
5027.92
5023.37
5019.02
5014.85
5010.86
5007.03
5003.36
4999.83
4996.44
4993.18
4990.04
4987.01
4984.08
4981.25
4978.5
4975.84
4973.25
4970.73
4968.28
4965.87
4963.52
4961.21
4958.94
4956.7
4954.49
4952.3
4950.13
4947.98
4945.83
4943.68
4941.54
4939.39
4937.24
4935.07
4932.89
4930.68
4928.46
4926.21
4923.93
4921.62
4919.28
4916.91
4914.5
4912.06
4909.57
4907.05
4904.48
4901.88
4899.23
4896.54
4893.8
4891.02
4888.2
4885.33
4882.42
4879.46
4876.46
4873.41
4870.32
4867.18
4864
4860.78
4857.51
4854.2
4850.84
4847.44
4844
4840.51
4836.98
4833.41
4829.79
4826.13
4822.43
4818.69
4814.9
4811.06
4807.19
4803.27
4799.31
4795.3
4791.25
4787.16
4783.03
4778.85
4774.63
4770.38
4766.08
4761.75
4757.38
4752.98
4748.54
4744.08
4739.6
4735.09
4730.57
4726.04
4721.5
4716.96
4712.43
4707.9
14491.5
20099.2
18257.6
16156.5
14802
13880
13163.6
12565
12048.5
11595.3
11193.1
10833.6
10510.5
10218.9
9955.08
9715.71
9498.1
9299.94
9119.22
8954.17
8803.25
8665.09
8538.47
8422.29
8315.6
8217.52
8127.27
8044.14
7967.52
7896.81
7831.52
7771.17
7715.34
7663.66
7615.76
7571.35
7530.13
7491.84
7456.24
7423.13
7392.29
7363.56
7336.77
7311.77
7288.42
7266.59
7246.18
7227.07
7209.17
7192.39
7176.65
7161.88
7148
7134.95
7122.68
7111.12
7100.24
7089.98
7080.3
7071.17
7062.55
7054.39
7046.69
7039.39
7032.49
7025.95
7019.75
7013.86
7008.28
7002.98
6997.94
6993.15
6988.59
6984.25
6980.12
6976.17
6972.41
6968.81
6965.37
6962.08
6958.93
6955.9
6953
6950.2
6947.5
6944.9
6942.39
6939.95
6937.58
6935.27
6933.02
6930.82
6928.66
6926.54
6924.44
6922.37
6920.32
6918.27
6916.23
6914.19
6912.14
6910.08
6908
6905.91
6903.79
6901.64
6899.46
6897.23
6894.96
6892.64
6890.26
6887.83
6885.33
6882.77
6880.14
6877.44
6874.67
6871.83
6868.91
6865.92
6862.85
6859.71
6856.48
6853.18
6849.8
6846.34
6842.81
6839.19
6835.5
6831.72
6827.87
6823.95
6819.94
6815.86
6811.7
6807.47
6803.17
6798.78
6794.33
6789.8
6785.19
6780.52
6775.77
6770.94
6766.04
6761.07
6756.02
6750.9
6745.7
6740.42
6735.07
6729.63
6724.12
6718.52
6712.83
6707.07
6701.21
6695.26
6689.23
6683.09
6676.87
6670.54
6664.12
6657.6
6650.97
6644.25
6637.44
6630.52
6623.52
6616.42
6609.25
6602
6594.68
6587.32
6579.9
21809.1
27134.9
23448.4
20614.2
18991
17896.5
17037.7
16320.9
15706.4
15171.3
14700.2
14282.4
13909.9
13576.4
13276.9
13007.4
12764.4
12544.8
12346.2
12166.2
12002.9
11854.7
11719.9
11597.2
11485.3
11383.3
11290.2
11205
11127.1
11055.7
10990.2
10930
10874.8
10823.9
10777.1
10733.9
10694
10657.2
10623.1
10591.5
10562.2
10535
10509.7
10486.2
10464.3
10443.9
10424.8
10407
10390.3
10374.7
10360.1
10346.3
10333.4
10321.3
10309.9
10299.1
10288.9
10279.4
10270.3
10261.7
10253.6
10246
10238.7
10231.8
10225.2
10219
10213.1
10207.4
10202
10196.9
10192
10187.3
10182.9
10178.6
10174.5
10170.6
10166.9
10163.3
10159.8
10156.5
10153.2
10150.1
10147.2
10144.3
10141.4
10138.7
10136
10133.4
10130.9
10128.4
10125.9
10123.5
10121.1
10118.7
10116.4
10114
10111.6
10109.3
10106.9
10104.5
10102
10099.6
10097.1
10094.5
10091.9
10089.3
10086.5
10083.7
10080.9
10077.9
10074.8
10071.6
10068.3
10064.9
10061.4
10057.8
10054
10050.1
10046.1
10042
10037.8
10033.4
10029
10024.4
10019.6
10014.8
10009.8
10004.8
9999.58
9994.27
9988.85
9983.31
9977.66
9971.89
9966.01
9960.02
9953.91
9947.7
9941.37
9934.94
9928.39
9921.74
9914.97
9908.09
9901.1
9894
9886.78
9879.45
9872
9864.42
9856.73
9848.9
9840.95
9832.86
9824.63
9816.25
9807.71
9799.02
9790.16
9781.12
9771.9
9762.48
9752.86
9743.02
9732.95
9722.65
9712.11
9701.31
9690.25
9678.93
9667.34
9655.48
9643.37
9631.02
9618.45
34917
38116.6
31610.2
27979.4
26067.4
24745.8
23693.8
22819.3
22076.3
21435.2
20876.1
20384.8
19950.8
19565.9
19223.5
18918.2
18645.2
18400.7
18181.2
17984
17806.3
17646
17501.1
17370
17251
17142.8
17044.3
16954.5
16872.4
16797.1
16728.1
16664.6
16606
16552
16502
16455.6
16412.5
16372.3
16334.9
16299.9
16267.2
16236.4
16207.5
16180.3
16154.7
16130.5
16107.6
16085.9
16065.3
16045.8
16027.2
16009.5
15992.6
15976.5
15961.1
15946.4
15932.4
15918.9
15906
15893.6
15881.7
15870.3
15859.3
15848.8
15838.6
15828.8
15819.4
15810.3
15801.6
15793.1
15785
15777.1
15769.5
15762.2
15755.1
15748.2
15741.5
15735.1
15728.9
15722.8
15716.9
15711.2
15705.7
15700.3
15695
15689.9
15684.9
15680
15675.2
15670.5
15665.9
15661.3
15656.8
15652.4
15648
15643.6
15639.3
15635
15630.7
15626.3
15622
15617.7
15613.3
15609
15604.5
15600.1
15595.5
15590.7
15585.9
15580.9
15575.7
15570.4
15564.9
15559.3
15553.5
15547.6
15541.5
15535.3
15528.9
15522.4
15515.7
15508.9
15501.9
15494.8
15487.6
15480.2
15472.6
15465
15457.1
15449.1
15441
15432.7
15424.3
15415.8
15407.1
15398.2
15389.2
15380.1
15370.8
15361.4
15351.8
15342.1
15332.2
15322.2
15312
15301.7
15291.1
15280.5
15269.6
15258.6
15247.4
15236
15224.5
15212.7
15200.7
15188.4
15175.9
15163.2
15150.1
15136.8
15123.1
15109.1
15094.7
15079.9
15064.7
15048.9
15032.6
15015.8
14998.3
14980.1
14961.2
14941.6
14921.1
14899.8
14877.7
62489
58187.2
47220.1
42734.8
40410.9
38701.9
37328.3
36197
35245.2
34431.3
33727.3
33113.5
32575
32100.1
31679.4
31305.2
30971.1
30671.6
30402.1
30158.8
29938.2
29737.5
29554.2
29386.2
29231.7
29089
28956.8
28834
28719.5
28612.4
28511.9
28417.4
28328.3
28244.1
28164.4
28088.7
28016.7
27948.1
27882.7
27820.2
27760.4
27703.1
27648.2
27595.5
27544.9
27496.2
27449.4
27404.3
27360.8
27318.9
27278.6
27239.6
27202
27165.7
27130.6
27096.7
27064
27032.3
27001.7
26972.1
26943.5
26915.8
26889
26863.1
26838
26813.7
26790.1
26767.4
26745.3
26723.9
26703.3
26683.2
26663.8
26645
26626.7
26609
26591.9
26575.2
26559.1
26543.4
26528.2
26513.5
26499.1
26485.1
26471.6
26458.4
26445.5
26432.9
26420.7
26408.7
26397
26385.6
26374.4
26363.4
26352.6
26342
26331.6
26321.3
26311.1
26301.1
26291.2
26281.3
26271.6
26261.9
26252.2
26242.3
26232.3
26222.2
26211.9
26201.6
26191.1
26180.7
26170.1
26159.6
26149
26138.3
26127.6
26116.9
26106.1
26095.3
26084.4
26073.5
26062.5
26051.4
26040.2
26029
26017.6
26006.2
25994.7
25983
25971.2
25959.3
25947.3
25935.2
25922.9
25910.4
25897.9
25885.1
25872.2
25859.2
25846
25832.6
25819
25805.3
25791.3
25777.1
25762.7
25748.1
25733.3
25718.2
25702.9
25687.2
25671.3
25655.1
25638.5
25621.5
25604.2
25586.5
25568.2
25549.5
25530.3
25510.4
25489.8
25468.5
25446.3
25423.1
25398.9
25373.4
25346.4
25317.9
25287.4
25254.8
25219.5
25181.6
25140.2
143152
108409
88946.2
82994.8
79433.1
76592.9
74302.7
72420.3
70833.3
69469.8
68282.4
67237.4
66309.5
65479.2
64731.1
64052.7
63434.1
62866.7
62343.8
61859.7
61409.4
60989.1
60595.3
60225.1
59876.2
59546.3
59233.8
58937
58654.8
58385.8
58129.2
57884
57649.4
57424.9
57209.6
57003.2
56805.1
56614.8
56431.9
56256
56086.9
55924.1
55767.5
55616.6
55471.2
55331.2
55196.2
55066.1
54940.6
54819.6
54702.9
54590.2
54481.6
54376.6
54275.4
54177.6
54083.2
53992.1
53904
53818.9
53736.8
53657.4
53580.6
53506.5
53434.8
53365.5
53298.5
53233.7
53171.1
53110.5
53051.9
52995.2
52940.3
52887.2
52835.8
52786
52737.7
52691
52645.7
52601.7
52559.1
52517.7
52477.5
52438.4
52400.4
52363.4
52327.3
52292.1
52257.8
52224.2
52191.3
52159.1
52127.4
52096.3
52065.7
52035.5
52005.7
51976.2
51946.9
51917.9
51889
51860.2
51831.6
51803.3
51775.8
51749.3
51724.1
51700.1
51677.2
51655.3
51634.4
51614.4
51595.3
51577
51559.5
51542.7
51526.5
51511
51496.1
51481.6
51467.7
51454.3
51441.3
51428.7
51416.5
51404.6
51393
51381.7
51370.6
51359.8
51349.2
51338.7
51328.4
51318.3
51308.2
51298.3
51288.3
51278.5
51268.6
51258.7
51248.8
51238.8
51228.8
51218.6
51208.4
51197.9
51187.3
51176.5
51165.4
51154
51142.4
51130.4
51118
51105.2
51091.9
51078.2
51063.8
51048.8
51033.1
51016.5
50999.1
50980.7
50961.1
50940.2
50917.8
50893.6
50867.4
50838.7
50807.1
50772.2
50732.4
50689.7
50631.3
50597.9
50451.8
590459
314014
275087
261527
249326
238693
229854
222401
215970
210326
205312
200817
196760
193077
189716
186638
183807
181197
178782
176543
174461
172521
170711
169017
167430
165941
164541
163223
161981
160809
159701
158653
157660
156719
155826
154978
154171
153404
152674
151978
151314
150681
150076
149499
148947
148418
147913
147429
146966
146522
146096
145688
145296
144920
144559
144213
143879
143559
143251
142955
142670
142396
142132
141878
141633
141397
141170
140951
140740
140537
140341
140152
139970
139795
139625
139462
139304
139153
139006
138865
138730
138599
138473
138352
138236
138124
138017
137915
137816
137723
137633
137548
137467
137390
137318
137249
137185
137125
137070
137018
136971
136928
136889
136854
136824
136797
136773
136753
136737
136724
136715
136710
136708
136711
136717
136726
136740
136757
136778
136802
136831
136862
136898
136936
136979
137024
137073
137125
137180
137238
137300
137364
137431
137500
137573
137647
137725
137805
137887
137971
138058
138146
138237
138330
138424
138521
138619
138718
138820
138923
139027
139133
139240
139349
139459
139570
139683
139796
139911
140027
140144
140263
140382
140503
140625
140748
140872
140999
141125
141258
141373
141583
141357
143208
135294
876.748
876.358
875.931
875.463
874.951
874.395
873.79
873.137
872.435
871.686
870.895
870.069
869.224
868.382
867.578
866.866
866.327
866.083
866.314
867.295
869.443
873.397
880.155
891.296
909.381
938.656
986.397
1065.54
1200.27
1439.8
890.992
890.577
890.122
889.622
889.076
888.48
887.831
887.128
886.371
885.558
884.695
883.789
882.852
881.906
880.983
880.135
879.439
879.014
879.034
879.768
881.624
885.233
891.582
902.247
919.786
948.47
995.639
1074.38
1209.21
1450.03
917.791
917.331
916.824
916.267
915.656
914.987
914.257
913.461
912.599
911.669
910.672
909.613
908.502
907.357
906.207
905.096
904.095
903.313
902.914
903.152
904.418
907.323
912.833
922.505
938.894
966.296
1012.15
1089.78
1224.21
1466.48
958.225
957.696
957.113
956.47
955.761
954.983
954.128
953.192
952.17
951.058
949.855
948.559
947.177
945.719
944.206
942.673
941.179
939.814
938.725
938.141
938.421
940.142
944.234
952.217
966.629
991.787
1035.23
1110.57
1243.47
1486.38
1015.07
1014.44
1013.75
1012.99
1012.14
1011.2
1010.17
1009.03
1007.78
1006.4
1004.89
1003.24
1001.45
999.525
997.463
995.286
993.032
990.767
988.606
986.738
985.478
985.349
987.223
992.566
1003.88
1025.48
1065.02
1136.43
1266.09
1508.08
1092.74
1091.98
1091.13
1090.19
1089.15
1087.99
1086.7
1085.26
1083.67
1081.91
1079.95
1077.79
1075.4
1072.76
1069.88
1066.73
1063.33
1059.7
1055.92
1052.11
1048.52
1045.61
1044.15
1045.55
1052.23
1068.52
1102.19
1167.5
1291.66
1530.53
1197.75
1196.8
1195.73
1194.54
1193.21
1191.73
1190.07
1188.2
1186.12
1183.78
1181.16
1178.23
1174.94
1171.25
1167.12
1162.52
1157.39
1151.71
1145.49
1138.77
1131.73
1124.69
1118.35
1113.99
1113.96
1122.59
1147.79
1204.28
1320.15
1553.22
1339.7
1338.47
1337.09
1335.54
1333.79
1331.83
1329.61
1327.11
1324.28
1321.09
1317.47