/*--------------------------------*- C++ -*----------------------------------*\
| =========                 |                                                 |
| \\      /  F ield         | OpenFOAM: The Open Source CFD Toolbox           |
|  \\    /   O peration     | Version:  2.1.1                                 |
|   \\  /    A nd           | Web:      www.OpenFOAM.org                      |
|    \\/     M anipulation  |                                                 |
\*---------------------------------------------------------------------------*/
FoamFile
{
    version     2.0;
    format      ascii;
    class       volScalarField;
    location    "4800";
    object      k;
}
// * * * * * * * * * * * * * * * * * * * * * * * * * * * * * * * * * * * * * //

dimensions      [0 2 -2 0 0 0 0];

internalField   nonuniform List<scalar> 
54800
(
11.725
11.5548
11.3333
11.0685
10.7747
10.4653
10.1508
9.83877
9.5342
9.24018
8.95848
8.68995
8.43485
8.19306
7.96426
7.74794
7.54356
7.3505
7.16814
6.99588
6.83312
6.67927
6.53381
6.39619
6.26594
6.14259
6.02572
5.91491
5.8098
5.71003
5.61528
5.52524
5.43963
5.35818
5.28065
5.20682
5.13645
5.06937
5.00537
4.9443
4.88598
4.83026
4.77701
4.7261
4.67739
4.63078
4.58615
4.5434
4.50244
4.46319
4.42554
4.38943
4.35478
4.32152
4.28958
4.2589
4.22943
4.2011
4.17387
4.14769
4.1225
4.09826
4.07494
4.05249
4.03087
4.01006
3.99
3.97068
3.95207
3.93412
3.91682
3.90014
3.88405
3.86853
3.85355
3.83911
3.82516
3.81171
3.79871
3.78617
3.77406
3.76236
3.75106
3.74014
3.72959
3.7194
3.70955
3.70003
3.69083
3.68193
3.67333
3.66501
3.65697
3.64919
3.64166
3.63439
3.62735
3.62053
3.61394
3.60756
3.60139
3.59542
3.58964
3.58405
3.57863
3.57339
3.56831
3.5634
3.55865
3.55404
3.54959
3.54527
3.5411
3.53705
3.53314
3.52935
3.52568
3.52213
3.5187
3.51537
3.51215
3.50903
3.50601
3.5031
3.50027
3.49754
3.49489
3.49233
3.48986
3.48746
3.48515
3.48291
3.48074
3.47864
3.47662
3.47466
3.47276
3.47093
3.46916
3.46745
3.4658
3.4642
3.46265
3.46116
3.45971
3.45832
3.45697
3.45567
3.45441
3.45319
3.45201
3.45088
3.44978
3.44872
3.4477
3.44671
3.44575
3.44482
3.44393
3.44307
3.44224
3.44143
3.44065
3.4399
3.43917
3.43847
3.43779
3.43714
3.4365
3.43589
3.4353
3.43473
3.43417
3.43364
3.43312
11.7205
11.5383
11.3023
11.0224
10.7148
10.3937
10.07
9.75101
9.44149
9.14407
8.86014
8.59026
8.33447
8.0925
7.86389
7.64805
7.44434
7.25213
7.07073
6.89952
6.73785
6.58515
6.44084
6.3044
6.17532
6.05313
5.9374
5.82773
5.72372
5.62504
5.53134
5.44233
5.35772
5.27724
5.20065
5.12773
5.05825
4.99201
4.92885
4.86857
4.81102
4.75606
4.70353
4.65331
4.60528
4.55931
4.51531
4.47317
4.4328
4.3941
4.357
4.32142
4.28728
4.2545
4.22304
4.19282
4.16379
4.13589
4.10907
4.08328
4.05848
4.03461
4.01165
3.98955
3.96827
3.94777
3.92803
3.90901
3.89069
3.87302
3.85599
3.83957
3.82374
3.80847
3.79373
3.77952
3.7658
3.75255
3.73977
3.72743
3.71551
3.704
3.69288
3.68214
3.67176
3.66174
3.65204
3.64268
3.63362
3.62487
3.61641
3.60823
3.60031
3.59266
3.58526
3.5781
3.57117
3.56446
3.55798
3.5517
3.54563
3.53975
3.53406
3.52855
3.52322
3.51806
3.51306
3.50823
3.50354
3.49901
3.49462
3.49037
3.48625
3.48226
3.47841
3.47467
3.47105
3.46755
3.46416
3.46088
3.4577
3.45462
3.45165
3.44876
3.44597
3.44328
3.44066
3.43814
3.43569
3.43332
3.43103
3.42882
3.42668
3.42461
3.4226
3.42066
3.41879
3.41698
3.41523
3.41353
3.4119
3.41032
3.40879
3.40731
3.40588
3.4045
3.40316
3.40187
3.40063
3.39942
3.39826
3.39714
3.39605
3.395
3.39399
3.39301
3.39206
3.39115
3.39026
3.38941
3.38858
3.38779
3.38702
3.38627
3.38555
3.38486
3.38419
3.38354
3.38291
3.38231
3.38172
3.38116
3.38061
3.38008
3.37957
11.7124
11.5083
11.2462
10.94
10.6087
10.2684
9.93
9.60045
9.28359
8.98133
8.69442
8.42293
8.16656
7.92475
7.69686
7.48216
7.2799
7.08935
6.90979
6.7405
6.58085
6.43019
6.28795
6.15357
6.02653
5.90637
5.79263
5.6849
5.5828
5.48597
5.39408
5.30682
5.22391
5.14508
5.07009
4.9987
4.93072
4.86593
4.80415
4.74522
4.68898
4.63527
4.58395
4.5349
4.48799
4.44312
4.40017
4.35904
4.31964
4.28189
4.2457
4.21099
4.1777
4.14574
4.11507
4.08561
4.05732
4.03013
4.00399
3.97887
3.9547
3.93145
3.90909
3.88756
3.86683
3.84688
3.82766
3.80914
3.7913
3.7741
3.75753
3.74155
3.72614
3.71127
3.69693
3.6831
3.66975
3.65686
3.64443
3.63242
3.62082
3.60962
3.59881
3.58836
3.57827
3.56851
3.55909
3.54998
3.54117
3.53266
3.52443
3.51647
3.50877
3.50132
3.49412
3.48715
3.48041
3.47389
3.46758
3.46147
3.45556
3.44984
3.4443
3.43894
3.43375
3.42872
3.42386
3.41914
3.41458
3.41016
3.40588
3.40174
3.39772
3.39383
3.39007
3.38642
3.38289
3.37947
3.37616
3.37295
3.36985
3.36684
3.36393
3.36111
3.35838
3.35573
3.35318
3.3507
3.3483
3.34598
3.34374
3.34157
3.33947
3.33743
3.33547
3.33357
3.33173
3.32995
3.32823
3.32656
3.32496
3.3234
3.3219
3.32045
3.31904
3.31768
3.31637
3.3151
3.31388
3.31269
3.31155
3.31045
3.30938
3.30834
3.30735
3.30638
3.30545
3.30455
3.30368
3.30285
3.30203
3.30125
3.30049
3.29976
3.29905
3.29837
3.29771
3.29707
3.29646
3.29586
3.29529
3.29473
3.2942
3.29368
3.29317
11.7008
11.465
11.166
10.8238
10.4618
10.0976
9.74186
9.40046
9.07589
8.76894
8.47951
8.20708
7.95088
7.71009
7.4838
7.27114
7.07124
6.88325
6.7064
6.53991
6.3831
6.23531
6.09592
5.96436
5.8401
5.72267
5.61159
5.50646
5.40689
5.31251
5.223
5.13804
5.05736
4.98069
4.90778
4.83841
4.77236
4.70945
4.64948
4.5923
4.53773
4.48564
4.43588
4.38834
4.34288
4.29941
4.25781
4.21798
4.17984
4.1433
4.10827
4.07469
4.04248
4.01157
3.98191
3.95342
3.92607
3.89978
3.87452
3.85024
3.82689
3.80443
3.78283
3.76203
3.74202
3.72275
3.70419
3.68631
3.66908
3.65249
3.63649
3.62106
3.60619
3.59185
3.57801
3.56466
3.55179
3.53936
3.52736
3.51577
3.50459
3.49379
3.48336
3.47328
3.46355
3.45414
3.44505
3.43627
3.42778
3.41957
3.41163
3.40396
3.39653
3.38936
3.38241
3.37569
3.36919
3.3629
3.35682
3.35092
3.34522
3.3397
3.33436
3.32918
3.32417
3.31932
3.31462
3.31007
3.30566
3.30139
3.29725
3.29325
3.28937
3.2856
3.28196
3.27843
3.27501
3.2717
3.26849
3.26538
3.26237
3.25945
3.25662
3.25388
3.25123
3.24866
3.24618
3.24377
3.24143
3.23918
3.23699
3.23487
3.23283
3.23084
3.22893
3.22707
3.22527
3.22354
3.22186
3.22023
3.21866
3.21714
3.21567
3.21424
3.21287
3.21154
3.21026
3.20901
3.20781
3.20665
3.20553
3.20445
3.2034
3.20239
3.20141
3.20047
3.19956
3.19867
3.19782
3.197
3.1962
3.19543
3.19469
3.19397
3.19328
3.19261
3.19196
3.19134
3.19073
3.19015
3.18959
3.18904
3.18851
3.18801
3.18751
11.6852
11.407
11.0602
10.6736
10.2758
9.88548
9.5122
9.15966
8.82854
8.5182
8.22758
7.95548
7.7007
7.46209
7.23853
7.02897
6.83241
6.64794
6.47468
6.31183
6.15866
6.01448
5.87864
5.75057
5.62973
5.51561
5.40777
5.30577
5.20923
5.11779
5.03111
4.9489
4.87086
4.79674
4.72629
4.65928
4.59552
4.5348
4.47695
4.42181
4.3692
4.319
4.27107
4.22528
4.18151
4.13966
4.09963
4.06131
4.02463
3.98949
3.95581
3.92353
3.89258
3.86288
3.83438
3.80703
3.78076
3.75552
3.73127
3.70796
3.68556
3.66401
3.64327
3.62333
3.60413
3.58565
3.56785
3.55071
3.53419
3.51828
3.50295
3.48816
3.47391
3.46017
3.44691
3.43412
3.42179
3.40988
3.39839
3.38729
3.37658
3.36624
3.35625
3.34661
3.33728
3.32828
3.31958
3.31117
3.30304
3.29518
3.28758
3.28024
3.27313
3.26626
3.25961
3.25318
3.24696
3.24093
3.23511
3.22946
3.224
3.21872
3.2136
3.20864
3.20384
3.19919
3.19469
3.19033
3.1861
3.182
3.17804
3.17419
3.17047
3.16686
3.16336
3.15996
3.15668
3.15349
3.1504
3.14741
3.14451
3.1417
3.13897
3.13633
3.13377
3.13129
3.12889
3.12656
3.12431
3.12212
3.12
3.11795
3.11597
3.11405
3.11218
3.11038
3.10864
3.10695
3.10531
3.10373
3.1022
3.10071
3.09928
3.09789
3.09655
3.09526
3.094
3.09279
3.09162
3.09048
3.08938
3.08832
3.0873
3.08631
3.08535
3.08443
3.08353
3.08267
3.08183
3.08103
3.08025
3.07949
3.07876
3.07806
3.07738
3.07672
3.07609
3.07547
3.07488
3.07431
3.07375
3.07322
3.0727
3.0722
3.07172
11.6649
11.3318
10.9258
10.4877
10.0513
9.63517
9.24608
8.88466
8.54921
8.23753
7.94756
7.67745
7.42559
7.19051
6.9709
6.76555
6.57336
6.39332
6.22452
6.0661
5.91729
5.77739
5.64573
5.52173
5.40484
5.29456
5.19042
5.092
4.99891
4.91079
4.82732
4.7482
4.67313
4.60187
4.53416
4.46981
4.40859
4.35032
4.29482
4.24194
4.19152
4.14341
4.09749
4.05364
4.01175
3.97169
3.93339
3.89674
3.86165
3.82806
3.79587
3.76503
3.73545
3.70709
3.67987
3.65375
3.62867
3.60459
3.58145
3.55921
3.53783
3.51728
3.49751
3.47849
3.46019
3.44257
3.42561
3.40927
3.39354
3.37838
3.36377
3.34969
3.33612
3.32303
3.31041
3.29823
3.28649
3.27515
3.26422
3.25366
3.24347
3.23362
3.22412
3.21494
3.20608
3.19751
3.18923
3.18123
3.1735
3.16603
3.1588
3.15181
3.14506
3.13852
3.1322
3.12608
3.12016
3.11444
3.10889
3.10353
3.09834
3.09331
3.08844
3.08372
3.07915
3.07473
3.07044
3.06629
3.06227
3.05837
3.05459
3.05092
3.04737
3.04393
3.04059
3.03736
3.03422
3.03118
3.02823
3.02537
3.0226
3.01991
3.0173
3.01477
3.01232
3.00994
3.00763
3.0054
3.00323
3.00113
2.99909
2.99711
2.9952
2.99334
2.99155
2.9898
2.98811
2.98648
2.9849
2.98336
2.98188
2.98044
2.97904
2.9777
2.97639
2.97513
2.9739
2.97272
2.97157
2.97047
2.9694
2.96836
2.96736
2.96639
2.96545
2.96454
2.96367
2.96282
2.962
2.96121
2.96044
2.9597
2.95898
2.95829
2.95762
2.95697
2.95635
2.95575
2.95516
2.9546
2.95405
2.95352
2.95301
2.95252
2.95204
11.6389
11.2362
10.7594
10.2642
9.78891
9.34953
8.94808
8.5811
8.24422
7.93366
7.64644
7.38014
7.13276
6.9026
6.68816
6.48811
6.30126
6.12654
5.96299
5.80971
5.66592
5.5309
5.40397
5.28455
5.17207
5.06604
4.966
4.87152
4.78223
4.69776
4.61779
4.54203
4.4702
4.40204
4.33732
4.27583
4.21736
4.16173
4.10878
4.05833
4.01025
3.9644
3.92065
3.87888
3.83899
3.80086
3.76441
3.72955
3.69618
3.66424
3.63364
3.60433
3.57623
3.54929
3.52345
3.49865
3.47484
3.45199
3.43003
3.40894
3.38866
3.36917
3.35043
3.3324
3.31505
3.29836
3.28229
3.26682
3.25191
3.23756
3.22372
3.21039
3.19755
3.18516
3.17321
3.16169
3.15058
3.13986
3.12951
3.11952
3.10988
3.10058
3.09159
3.08291
3.07453
3.06643
3.05861
3.05105
3.04374
3.03667
3.02985
3.02324
3.01686
3.01068
3.00471
2.99893
2.99334
2.98793
2.98269
2.97762
2.97272
2.96797
2.96337
2.95891
2.95459
2.95041
2.94636
2.94243
2.93863
2.93494
2.93137
2.9279
2.92454
2.92128
2.91813
2.91506
2.91209
2.90921
2.90641
2.90369
2.90106
2.89851
2.89603
2.89362
2.89129
2.88903
2.88683
2.8847
2.88263
2.88062
2.87867
2.87678
2.87495
2.87317
2.87144
2.86977
2.86814
2.86657
2.86504
2.86356
2.86213
2.86074
2.85939
2.85808
2.85681
2.85558
2.8544
2.85324
2.85213
2.85105
2.85
2.84899
2.84801
2.84706
2.84614
2.84525
2.84438
2.84355
2.84274
2.84196
2.84121
2.84048
2.83977
2.83909
2.83843
2.83779
2.83717
2.83657
2.83599
2.83543
2.83489
2.83437
2.83386
2.83337
2.8329
11.6056
11.1161
10.557
10.0014
9.48973
9.0318
8.62266
8.25406
7.91893
7.61208
7.32975
7.06907
6.82773
6.60382
6.39572
6.20199
6.02138
5.85278
5.69518
5.54768
5.40949
5.27986
5.15814
5.04372
4.93605
4.83464
4.73902
4.6488
4.56358
4.48303
4.40681
4.33464
4.26626
4.20141
4.13986
4.08141
4.02586
3.97304
3.92277
3.87491
3.82931
3.78584
3.74438
3.70481
3.66703
3.63094
3.59644
3.56346
3.53191
3.50171
3.47279
3.44509
3.41855
3.39311
3.36871
3.3453
3.32284
3.30128
3.28057
3.26068
3.24157
3.2232
3.20553
3.18855
3.17221
3.15649
3.14136
3.12679
3.11276
3.09925
3.08624
3.0737
3.06161
3.04996
3.03873
3.0279
3.01745
3.00738
2.99765
2.98827
2.97921
2.97047
2.96203
2.95388
2.94601
2.93841
2.93106
2.92396
2.9171
2.91047
2.90407
2.89787
2.89188
2.88608
2.88048
2.87506
2.86981
2.86474
2.85983
2.85507
2.85047
2.84601
2.8417
2.83752
2.83347
2.82954
2.82574
2.82206
2.81849
2.81503
2.81167
2.80842
2.80527
2.80221
2.79924
2.79636
2.79356
2.79085
2.78822
2.78567
2.78319
2.78078
2.77845
2.77618
2.77398
2.77184
2.76976
2.76774
2.76578
2.76388
2.76203
2.76024
2.75849
2.7568
2.75516
2.75356
2.75201
2.7505
2.74904
2.74762
2.74624
2.7449
2.7436
2.74234
2.74111
2.73992
2.73877
2.73765
2.73657
2.73551
2.73449
2.7335
2.73254
2.73161
2.73071
2.72983
2.72899
2.72816
2.72737
2.7266
2.72585
2.72513
2.72442
2.72375
2.72309
2.72245
2.72184
2.72124
2.72066
2.7201
2.71956
2.71904
2.71853
2.71804
2.71756
11.5629
10.9663
10.3143
9.69827
9.15561
8.68553
8.27412
7.90804
7.57785
7.27724
7.00187
6.74852
6.51466
6.29825
6.09754
5.91106
5.73751
5.57573
5.42472
5.28358
5.15148
5.02771
4.9116
4.80255
4.70003
4.60355
4.51266
4.42695
4.34606
4.26964
4.19739
4.12902
4.06426
4.00289
3.94468
3.88943
3.83695
3.78707
3.73963
3.69447
3.65148
3.61051
3.57144
3.53418
3.49862
3.46466
3.43221
3.4012
3.37154
3.34317
3.31601
3.29001
3.2651
3.24123
3.21834
3.1964
3.17534
3.15513
3.13574
3.11711
3.09921
3.08202
3.06549
3.0496
3.03432
3.01962
3.00548
2.99186
2.97876
2.96614
2.95398
2.94227
2.93099
2.92012
2.90964
2.89953
2.88979
2.88039
2.87132
2.86257
2.85413
2.84598
2.83812
2.83052
2.82319
2.81611
2.80927
2.80266
2.79627
2.7901
2.78414
2.77837
2.77279
2.7674
2.76219
2.75714
2.75226
2.74754
2.74297
2.73855
2.73427
2.73013
2.72611
2.72222
2.71846
2.71481
2.71128
2.70785
2.70453
2.70131
2.69819
2.69516
2.69223
2.68938
2.68661
2.68393
2.68133
2.6788
2.67635
2.67397
2.67166
2.66941
2.66723
2.66511
2.66305
2.66105
2.6591
2.65721
2.65538
2.65359
2.65185
2.65016
2.64852
2.64692
2.64537
2.64386
2.64239
2.64096
2.63957
2.63822
2.6369
2.63562
2.63438
2.63317
2.63199
2.63084
2.62973
2.62865
2.6276
2.62657
2.62558
2.62461
2.62367
2.62276
2.62187
2.62101
2.62018
2.61936
2.61858
2.61781
2.61707
2.61635
2.61565
2.61497
2.61431
2.61367
2.61305
2.61245
2.61186
2.6113
2.61075
2.61022
2.60971
2.60921
2.60872
11.5077
10.7809
10.0274
9.3545
8.78909
8.31444
7.90637
7.54685
7.22462
6.93261
6.6661
6.42166
6.19661
5.98882
5.79648
5.61809
5.45231
5.29801
5.15416
5.01987
4.89433
4.77682
4.66669
4.56337
4.46631
4.37505
4.28914
4.2082
4.13186
4.0598
3.99171
3.92732
3.86638
3.80867
3.75396
3.70206
3.65279
3.60599
3.56151
3.51919
3.47892
3.44057
3.40402
3.36917
3.33593
3.30421
3.27391
3.24497
3.2173
3.19084
3.16553
3.14131
3.11811
3.09589
3.0746
3.05419
3.03461
3.01583
2.99781
2.98051
2.9639
2.94795
2.93262
2.91788
2.90372
2.89009
2.87699
2.86438
2.85225
2.84057
2.82932
2.81849
2.80806
2.798
2.78832
2.77898
2.76998
2.7613
2.75293
2.74485
2.73706
2.72954
2.72229
2.71528
2.70852
2.70199
2.69569
2.6896
2.68371
2.67802
2.67253
2.66722
2.66209
2.65712
2.65232
2.64768
2.64319
2.63884
2.63464
2.63057
2.62663
2.62282
2.61912
2.61555
2.61209
2.60873
2.60548
2.60233
2.59927
2.59631
2.59344
2.59065
2.58795
2.58533
2.58279
2.58032
2.57792
2.57559
2.57333
2.57113
2.569
2.56693
2.56491
2.56296
2.56105
2.5592
2.5574
2.55565
2.55394
2.55228
2.55067
2.54909
2.54756
2.54607
2.54462
2.54321
2.54183
2.54049
2.53918
2.5379
2.53666
2.53545
2.53427
2.53312
2.53199
2.5309
2.52983
2.52879
2.52778
2.52679
2.52582
2.52488
2.52397
2.52307
2.5222
2.52135
2.52053
2.51972
2.51894
2.51818
2.51743
2.51671
2.516
2.51532
2.51465
2.514
2.51337
2.51276
2.51216
2.51158
2.51102
2.51048
2.50995
2.50943
2.50893
11.4363
10.5529
9.6923
8.97065
8.3931
7.92203
7.52273
7.17349
6.86195
6.58069
6.3248
6.09071
5.87569
5.67755
5.49447
5.32494
5.16762
5.02139
4.88524
4.75829
4.63974
4.5289
4.42513
4.32785
4.23657
4.15082
4.07017
3.99425
3.9227
3.85522
3.79152
3.73132
3.6744
3.62052
3.56949
3.52112
3.47524
3.43168
3.39031
3.35099
3.31358
3.27799
3.24409
3.2118
3.18101
3.15164
3.12362
3.09686
3.0713
3.04687
3.02351
3.00117
2.97979
2.95932
2.93971
2.92093
2.90293
2.88566
2.86911
2.85322
2.83798
2.82334
2.80928
2.79578
2.7828
2.77032
2.75833
2.74679
2.7357
2.72502
2.71474
2.70485
2.69532
2.68615
2.67731
2.66879
2.66058
2.65267
2.64505
2.63769
2.6306
2.62375
2.61715
2.61078
2.60463
2.59869
2.59296
2.58742
2.58208
2.57691
2.57192
2.5671
2.56244
2.55793
2.55358
2.54936
2.54529
2.54135
2.53754
2.53385
2.53027
2.52682
2.52347
2.52023
2.51709
2.51405
2.5111
2.50824
2.50547
2.50279
2.50018
2.49766
2.49521
2.49283
2.49052
2.48828
2.4861
2.48399
2.48193
2.47994
2.478
2.47611
2.47427
2.47249
2.47075
2.46906
2.46742
2.46582
2.46426
2.46274
2.46126
2.45981
2.45841
2.45703
2.45569
2.45439
2.45311
2.45187
2.45065
2.44946
2.4483
2.44717
2.44606
2.44498
2.44392
2.44288
2.44187
2.44088
2.4399
2.43896
2.43803
2.43712
2.43623
2.43536
2.4345
2.43367
2.43285
2.43205
2.43127
2.43051
2.42976
2.42903
2.42832
2.42762
2.42694
2.42627
2.42562
2.42499
2.42437
2.42377
2.42318
2.42261
2.42205
2.42151
2.42098
11.3429
10.274
9.30547
8.54794
7.97066
7.51123
7.12562
6.78998
6.49163
6.22311
5.97945
5.75707
5.55323
5.36572
5.19277
5.03285
4.88467
4.74713
4.61923
4.50012
4.38902
4.28527
4.18825
4.09741
4.01225
3.93234
3.85726
3.78666
3.7202
3.65758
3.59852
3.54277
3.4901
3.44031
3.39318
3.34856
3.30627
3.26617
3.22811
3.19197
3.15763
3.12497
3.09391
3.06433
3.03617
3.00932
2.98372
2.95931
2.936
2.91374
2.89248
2.87216
2.85272
2.83413
2.81634
2.79931
2.783
2.76737
2.75239
2.73802
2.72425
2.71103
2.69834
2.68616
2.67447
2.66323
2.65243
2.64206
2.63208
2.62249
2.61326
2.60438
2.59583
2.5876
2.57968
2.57205
2.5647
2.55762
2.5508
2.54422
2.53788
2.53177
2.52587
2.52018
2.5147
2.5094
2.50429
2.49935
2.49459
2.48999
2.48555
2.48125
2.4771
2.47309
2.46922
2.46547
2.46185
2.45834
2.45495
2.45167
2.4485
2.44543
2.44245
2.43957
2.43678
2.43408
2.43146
2.42892
2.42646
2.42407
2.42175
2.41951
2.41733
2.41521
2.41315
2.41116
2.40922
2.40733
2.4055
2.40372
2.40199
2.4003
2.39866
2.39706
2.39551
2.39399
2.39252
2.39108
2.38968
2.38831
2.38697
2.38567
2.38439
2.38315
2.38193
2.38075
2.37958
2.37845
2.37733
2.37624
2.37517
2.37413
2.3731
2.37209
2.37111
2.37014
2.36919
2.36825
2.36733
2.36643
2.36554
2.36467
2.36381
2.36297
2.36214
2.36132
2.36052
2.35973
2.35895
2.35818
2.35743
2.35669
2.35596
2.35525
2.35454
2.35385
2.35317
2.35251
2.35186
2.35122
2.35059
2.34997
2.34937
2.34879
2.34821
11.2199
9.93406
8.86351
8.08792
7.52429
7.08398
6.71643
6.39738
6.11454
5.86064
5.6308
5.42147
5.22996
5.05412
4.89219
4.7427
4.60441
4.47622
4.3572
4.24652
4.14343
4.04729
3.95751
3.87356
3.79497
3.72132
3.65223
3.58734
3.52634
3.46893
3.41487
3.3639
3.31582
3.27042
3.22751
3.18693
3.14852
3.11215
3.07767
3.04498
3.01395
2.98448
2.95648
2.92986
2.90453
2.88042
2.85746
2.83559
2.81473
2.79483
2.77585
2.75772
2.74041
2.72386
2.70805
2.69292
2.67844
2.66459
2.65132
2.63862
2.62644
2.61477
2.60358
2.59284
2.58254
2.57265
2.56316
2.55404
2.54528
2.53687
2.52878
2.521
2.51352
2.50632
2.4994
2.49273
2.48632
2.48014
2.47419
2.46846
2.46294
2.45762
2.45249
2.44754
2.44278
2.43818
2.43374
2.42946
2.42532
2.42133
2.41748
2.41376
2.41017
2.40669
2.40334
2.4001
2.39696
2.39393
2.39099
2.38816
2.38541
2.38275
2.38018
2.37769
2.37527
2.37293
2.37067
2.36847
2.36634
2.36427
2.36226
2.36032
2.35843
2.35659
2.3548
2.35307
2.35138
2.34975
2.34815
2.3466
2.34509
2.34361
2.34218
2.34078
2.33942
2.33809
2.33679
2.33553
2.33429
2.33308
2.3319
2.33075
2.32961
2.32851
2.32742
2.32636
2.32532
2.3243
2.3233
2.32231
2.32134
2.32039
2.31946
2.31854
2.31763
2.31673
2.31585
2.31498
2.31412
2.31328
2.31244
2.31161
2.31079
2.30998
2.30918
2.30838
2.30759
2.30681
2.30604
2.30527
2.30451
2.30376
2.30301
2.30227
2.30154
2.30082
2.3001
2.29939
2.29869
2.298
2.29732
2.29664
2.29598
2.29533
2.29469
11.0559
9.52064
8.36305
7.59201
7.05555
6.64099
6.29534
5.99573
5.73072
5.4934
5.27905
5.08424
4.90636
4.74335
4.59352
4.45545
4.32795
4.20998
4.10064
3.99914
3.90478
3.81693
3.73505
3.65862
3.5872
3.5204
3.45784
3.39919
3.34416
3.29247
3.24388
3.19816
3.15511
3.11452
3.07624
3.0401
3.00596
2.97369
2.94315
2.91424
2.88685
2.86088
2.83625
2.81287
2.79067
2.76956
2.7495
2.73041
2.71224
2.69493
2.67844
2.66272
2.64773
2.63342
2.61976
2.60672
2.59425
2.58233
2.57094
2.56004
2.5496
2.53961
2.53004
2.52087
2.51209
2.50366
2.49558
2.48783
2.48039
2.47324
2.46639
2.4598
2.45347
2.44738
2.44153
2.43591
2.43049
2.42529
2.42028
2.41545
2.41081
2.40634
2.40203
2.39788
2.39388
2.39002
2.3863
2.38271
2.37925
2.37592
2.37269
2.36958
2.36658
2.36368
2.36087
2.35816
2.35554
2.35301
2.35056
2.34819
2.3459
2.34368
2.34153
2.33945
2.33743
2.33547
2.33358
2.33174
2.32995
2.32822
2.32654
2.3249
2.32331
2.32177
2.32027
2.31881
2.31739
2.316
2.31465
2.31334
2.31205
2.3108
2.30958
2.30839
2.30723
2.30609
2.30497
2.30388
2.30282
2.30177
2.30075
2.29975
2.29876
2.29779
2.29684
2.29591
2.29499
2.29409
2.2932
2.29232
2.29146
2.29061
2.28976
2.28893
2.28811
2.28729
2.28649
2.28568
2.28489
2.2841
2.28332
2.28254
2.28176
2.28099
2.28022
2.27945
2.27869
2.27792
2.27715
2.27639
2.27562
2.27486
2.27409
2.27333
2.27256
2.27179
2.27103
2.27026
2.2695
2.26874
2.26798
2.26723
2.26648
2.26574
2.265
10.8338
9.01751
7.8003
7.06086
6.56445
6.18145
5.86143
5.58429
5.33971
5.12123
4.92437
4.74589
4.58329
4.43463
4.2983
4.17296
4.05749
3.95091
3.85237
3.76111
3.67648
3.59789
3.52481
3.45678
3.39338
3.33422
3.27896
3.22729
3.17894
3.13364
3.09116
3.05129
3.01384
2.97863
2.9455
2.91431
2.88491
2.85718
2.831
2.80628
2.78291
2.76081
2.73989
2.72008
2.7013
2.68349
2.6666
2.65055
2.63531
2.62082
2.60704
2.59392
2.58143
2.56954
2.5582
2.54739
2.53708
2.52723
2.51783
2.50885
2.50027
2.49206
2.48422
2.4767
2.46951
2.46263
2.45603
2.44971
2.44365
2.43784
2.43226
2.42691
2.42178
2.41684
2.41211
2.40756
2.40318
2.39898
2.39493
2.39104
2.3873
2.3837
2.38023
2.37689
2.37367
2.37057
2.36759
2.36471
2.36193
2.35925
2.35667
2.35417
2.35176
2.34944
2.34719
2.34502
2.34292
2.34089
2.33892
2.33702
2.33518
2.3334
2.33167
2.33
2.32838
2.3268
2.32528
2.32379
2.32235
2.32095
2.31959
2.31827
2.31698
2.31572
2.3145
2.31331
2.31214
2.31101
2.3099
2.30881
2.30775
2.30671
2.3057
2.3047
2.30373
2.30277
2.30184
2.30091
2.30001
2.29912
2.29825
2.29739
2.29654
2.2957
2.29488
2.29407
2.29327
2.29247
2.29169
2.29091
2.29015
2.28939
2.28863
2.28788
2.28714
2.2864
2.28566
2.28493
2.2842
2.28347
2.28274
2.28201
2.28128
2.28054
2.27981
2.27907
2.27833
2.27758
2.27683
2.27607
2.2753
2.27453
2.27375
2.27296
2.27215
2.27135
2.27053
2.2697
2.26886
2.26801
2.26716
2.2663
2.26544
2.26457
2.2637
10.5258
8.40263
7.17062
6.49378
6.04929
5.70337
5.4132
5.16228
4.94149
4.74485
4.56821
4.40854
4.26353
4.13138
4.01057
3.89987
3.79823
3.70473
3.61858
3.53908
3.46561
3.39763
3.33465
3.27622
3.22196
3.17151
3.12455
3.08081
3.04
3.00191
2.96631
2.93301
2.90183
2.8726
2.84519
2.81946
2.79528
2.77254
2.75114
2.73098
2.71197
2.69404
2.67711
2.66111
2.64598
2.63167
2.61811
2.60527
2.59309
2.58154
2.57057
2.56015
2.55024
2.54082
2.53186
2.52332
2.51519
2.50743
2.50004
2.49299
2.48625
2.47982
2.47367
2.4678
2.46218
2.4568
2.45166
2.44673
2.44201
2.43749
2.43315
2.429
2.42501
2.42118
2.41751
2.41398
2.41059
2.40733
2.4042
2.40119
2.39829
2.39551
2.39283
2.39024
2.38776
2.38536
2.38306
2.38083
2.37869
2.37662
2.37462
2.37269
2.37083
2.36903
2.3673
2.36562
2.36399
2.36242
2.3609
2.35943
2.358
2.35661
2.35527
2.35397
2.35271
2.35148
2.35029
2.34912
2.34799
2.34689
2.34582
2.34477
2.34375
2.34275
2.34177
2.34081
2.33987
2.33895
2.33805
2.33716
2.33629
2.33544
2.3346
2.33377
2.33295
2.33215
2.33136
2.33058
2.32981
2.32905
2.3283
2.32756
2.32683
2.3261
2.32538
2.32466
2.32396
2.32325
2.32256
2.32186
2.32117
2.32049
2.31981
2.31912
2.31845
2.31777
2.31709
2.31641
2.31573
2.31505
2.31437
2.31368
2.31299
2.3123
2.3116
2.31089
2.31017
2.30945
2.30871
2.30796
2.3072
2.30642
2.30563
2.30482
2.304
2.30315
2.30228
2.30138
2.30047
2.29953
2.29856
2.29758
2.29657
2.29554
2.29449
10.0835
7.64503
6.46899
5.88922
5.50776
5.20531
4.9509
4.73168
4.53961
4.3693
4.21697
4.0799
3.95599
3.84358
3.74131
3.64806
3.56285
3.48484
3.41332
3.34764
3.28723
3.2316
3.18029
3.13292
3.08913
3.04858
3.011
2.97613
2.94374
2.9136
2.88554
2.85938
2.83497
2.81216
2.79082
2.77085
2.75212
2.73456
2.71806
2.70255
2.68796
2.67421
2.66125
2.64903
2.63748
2.62657
2.61625
2.60648
2.59722
2.58844
2.58012
2.57221
2.5647
2.55755
2.55076
2.54429
2.53813
2.53225
2.52665
2.52131
2.51621
2.51133
2.50667
2.50222
2.49796
2.49388
2.48998
2.48624
2.48266
2.47922
2.47593
2.47277
2.46974
2.46683
2.46403
2.46134
2.45876
2.45628
2.45389
2.4516
2.44939
2.44726
2.44521
2.44324
2.44133
2.4395
2.43773
2.43603
2.43438
2.4328
2.43126
2.42978
2.42835
2.42697
2.42563
2.42433
2.42308
2.42187
2.42069
2.41955
2.41844
2.41737
2.41633
2.41531
2.41433
2.41337
2.41243
2.41152
2.41062
2.40974
2.40888
2.40803
2.4072
2.40639
2.40558
2.40479
2.40401
2.40324
2.40248
2.40174
2.401
2.40027
2.39955
2.39884
2.39814
2.39744
2.39675
2.39607
2.39539
2.39472
2.39405
2.39339
2.39274
2.39208
2.39144
2.39079
2.39015
2.38951
2.38887
2.38824
2.38761
2.38697
2.38634
2.38571
2.38508
2.38445
2.38382
2.38318
2.38254
2.3819
2.38126
2.38061
2.37996
2.3793
2.37863
2.37796
2.37727
2.37657
2.37586
2.37514
2.3744
2.37364
2.37286
2.37205
2.37122
2.37036
2.36947
2.36854
2.36756
2.36655
2.36549
2.36437
2.36321
2.36199
2.36071
9.41385
6.70519
5.69698
5.25106
4.94424
4.69509
4.48617
4.30748
4.15202
4.01508
3.89342
3.78467
3.68701
3.599
3.51944
3.44735
3.38187
3.32227
3.26792
3.21827
3.17283
3.13116
3.0929
3.05769
3.02525
2.9953
2.96762
2.94198
2.91821
2.89612
2.87557
2.85643
2.83857
2.82189
2.80628
2.79165
2.77793
2.76505
2.75293
2.74153
2.73078
2.72063
2.71105
2.70199
2.69342
2.6853
2.6776
2.67029
2.66335
2.65676
2.65048
2.64451
2.63882
2.63339
2.62822
2.62328
2.61856
2.61405
2.60974
2.60562
2.60167
2.59789
2.59427
2.5908
2.58747
2.58427
2.58121
2.57827
2.57544
2.57272
2.57011
2.5676
2.56519
2.56287
2.56063
2.55848
2.55641
2.55442
2.55249
2.55064
2.54885
2.54713
2.54547
2.54386
2.54232
2.54082
2.53938
2.53798
2.53663
2.53533
2.53407
2.53285
2.53166
2.53052
2.52941
2.52834
2.52729
2.52628
2.5253
2.52435
2.52342
2.52252
2.52164
2.52079
2.51995
2.51912
2.51831
2.5175
2.51671
2.51593
2.51516
2.5144
2.51365
2.51292
2.51219
2.51148
2.51077
2.51008
2.5094
2.50872
2.50806
2.5074
2.50675
2.50611
2.50548
2.50485
2.50423
2.50362
2.50301
2.50241
2.50181
2.50122
2.50063
2.50005
2.49947
2.49889
2.49831
2.49774
2.49717
2.4966
2.49603
2.49546
2.4949
2.49433
2.49376
2.49319
2.49263
2.49206
2.49148
2.49091
2.49033
2.48975
2.48916
2.48857
2.48797
2.48736
2.48674
2.48612
2.48548
2.48482
2.48415
2.48346
2.48275
2.48201
2.48124
2.48044
2.47959
2.4787
2.47775
2.47673
2.47563
2.47444
2.47314
2.47173
2.47015
8.3356
5.58786
4.90738
4.62346
4.40491
4.22559
4.07765
3.95271
3.84505
3.75104
3.66818
3.59464
3.52901
3.47017
3.4172
3.36935
3.32598
3.28654
3.25058
3.21769
3.18753
3.15979
3.13421
3.11057
3.08867
3.06833
3.0494
3.03174
3.01524
2.99979
2.9853
2.97168
2.95887
2.94679
2.93539
2.92461
2.91441
2.90475
2.89558
2.88688
2.8786
2.87073
2.86323
2.85608
2.84926
2.84276
2.83654
2.83059
2.82491
2.81947
2.81426
2.80926
2.80448
2.79989
2.79548
2.79126
2.78719
2.78329
2.77954
2.77594
2.77247
2.76914
2.76593
2.76284
2.75986
2.757
2.75423
2.75157
2.74901
2.74653
2.74415
2.74184
2.73962
2.73748
2.73541
2.73341
2.73147
2.72961
2.7278
2.72605
2.72436
2.72273
2.72114
2.71961
2.71812
2.71667
2.71526
2.7139
2.71257
2.71128
2.71002
2.70879
2.70759
2.70641
2.70526
2.70413
2.70302
2.70193
2.70086
2.6998
2.69876
2.69773
2.69671
2.6957
2.69471
2.69374
2.69281
2.6919
2.69103
2.69019
2.68938
2.68859
2.68784
2.68712
2.68642
2.68575
2.68511
2.68448
2.68388
2.6833
2.68274
2.6822
2.68167
2.68117
2.68067
2.68019
2.67972
2.67927
2.67883
2.6784
2.67798
2.67757
2.67717
2.67677
2.67639
2.67601
2.67564
2.67528
2.67492
2.67456
2.67422
2.67387
2.67353
2.67319
2.67286
2.67253
2.6722
2.67187
2.67154
2.67121
2.67088
2.67055
2.67022
2.66988
2.66955
2.6692
2.66885
2.6685
2.66813
2.66775
2.66737
2.66696
2.66654
2.6661
2.66564
2.66514
2.6646
2.66402
2.66338
2.66267
2.66186
2.66097
2.65979
2.65898
2.65614
6.82214
4.47796
4.09967
3.9637
3.83933
3.72929
3.63655
3.55742
3.48843
3.4273
3.37253
3.32306
3.27808
3.23698
3.19924
3.16448
3.13234
3.10255
3.07487
3.04909
3.02502
3.00251
2.98142
2.96163
2.94302
2.9255
2.90898
2.89339
2.87865
2.86471
2.8515
2.83898
2.82709
2.81579
2.80506
2.79484
2.78511
2.77583
2.76699
2.75854
2.75048
2.74278
2.73541
2.72837
2.72163
2.71517
2.70898
2.70305
2.69737
2.69191
2.68668
2.68165
2.67683
2.67219
2.66773
2.66345
2.65933
2.65537
2.65156
2.64789
2.64435
2.64095
2.63768
2.63452
2.63148
2.62855
2.62572
2.62299
2.62037
2.61783
2.61539
2.61303
2.61076
2.60857
2.60645
2.60441
2.60244
2.60054
2.59871
2.59695
2.59525
2.59361
2.59204
2.59052
2.58906
2.58766
2.58632
2.58503
2.5838
2.58262
2.58149
2.58042
2.57941
2.57844
2.57753
2.57667
2.57586
2.57511
2.57441
2.57376
2.57317
2.57262
2.57213
2.5717
2.57131
2.57096
2.57067
2.57042
2.57021
2.57005
2.56993
2.56986
2.56984
2.56986
2.56994
2.57006
2.57022
2.57043
2.57069
2.571
2.57135
2.57175
2.57219
2.57267
2.5732
2.57377
2.57438
2.57503
2.57572
2.57644
2.57721
2.57801
2.57884
2.57971
2.58062
2.58155
2.58252
2.58351
2.58454
2.58559
2.58667
2.58778
2.58891
2.59007
2.59125
2.59245
2.59367
2.59491
2.59618
2.59746
2.59876
2.60008
2.60141
2.60277
2.60413
2.60552
2.60692
2.60833
2.60976
2.6112
2.61265
2.61412
2.61561
2.61711
2.61862
2.62015
2.62169
2.62326
2.62483
2.62647
2.6279
2.6305
2.6277
2.65059
2.55201
3.43227
3.43102
3.42964
3.42813
3.42647
3.42467
3.42271
3.42058
3.41829
3.41582
3.41321
3.41045
3.40759
3.4047
3.40185
3.3992
3.39697
3.39549
3.39526
3.39703
3.40194
3.41175
3.42916
3.45845
3.50642
3.58416
3.71013
3.91582
4.25692
4.8375
3.37873
3.37749
3.37613
3.37463
3.373
3.37122
3.36928
3.36718
3.36492
3.36249
3.35991
3.3572
3.3544
3.35156
3.34877
3.34619
3.34403
3.34262
3.34245
3.34427
3.34919
3.35896
3.37625
3.40529
3.45286
3.53002
3.65526
3.86023
4.20103
4.7827
3.29235
3.29113
3.28979
3.28832
3.28672
3.28497
3.28307
3.28101
3.2788
3.27642
3.2739
3.27126
3.26852
3.26576
3.26306
3.26056
3.25849
3.25716
3.25704
3.25887
3.26373
3.27332
3.29025
3.3187
3.36536
3.44125
3.56489
3.76813
4.10774
4.69032
3.1867
3.1855
3.18419
3.18276
3.18119
3.17947
3.17761
3.1756
3.17343
3.17111
3.16864
3.16606
3.16339
3.1607
3.15807
3.15564
3.15362
3.15232
3.15218
3.1539
3.15853
3.1677
3.18396
3.21136
3.2565
3.33031
3.45132
3.65159
3.98867
4.57115
3.07092
3.06974
3.06846
3.06704
3.0655
3.06382
3.06199
3.06001
3.05788
3.0556
3.05318
3.05064
3.04802
3.04537
3.04278
3.04037
3.03833
3.03696
3.03668
3.03815
3.04235
3.05084
3.06607
3.09197
3.13499
3.20595
3.32331
3.51936
3.85243
4.43345
2.95126
2.9501
2.94883
2.94743
2.94591
2.94424
2.94243
2.94047
2.93836
2.9361
2.9337
2.93118
2.92856
2.92591
2.9233
2.92084
2.91871
2.91718
2.91664
2.9177
2.92129
2.92888
2.94278
2.96681
3.00724
3.07468
3.18753
3.3782
3.70585
4.28392
2.83212
2.83097
2.8297
2.82831
2.82679
2.82512
2.82332
2.82135
2.81923
2.81696
2.81454
2.81199
2.80934
2.80663