/*--------------------------------*- C++ -*----------------------------------*\
| =========                 |                                                 |
| \\      /  F ield         | OpenFOAM: The Open Source CFD Toolbox           |
|  \\    /   O peration     | Version:  2.1.1                                 |
|   \\  /    A nd           | Web:      www.OpenFOAM.org                      |
|    \\/     M anipulation  |                                                 |
\*---------------------------------------------------------------------------*/
FoamFile
{
    version     2.0;
    format      ascii;
    class       volScalarField;
    location    "4800";
    object      kappat;
}
// * * * * * * * * * * * * * * * * * * * * * * * * * * * * * * * * * * * * * //

dimensions      [0 2 -1 0 0 0 0];

internalField   nonuniform List<scalar> 
54800
(
0.0222007
0.0153525
0.0114635
0.00914327
0.0076569
0.00663968
0.00590429
0.00534857
0.00491339
0.00456266
0.00427333
0.00403008
0.00382236
0.00364267
0.00348552
0.00334682
0.00322341
0.00311287
0.00301324
0.00292297
0.00284079
0.00276567
0.00269674
0.00263327
0.00257464
0.00252034
0.0024699
0.00242296
0.00237916
0.00233821
0.00229986
0.00226388
0.00223007
0.00219824
0.00216824
0.00213993
0.00211318
0.00208787
0.00206391
0.00204118
0.00201961
0.00199913
0.00197965
0.00196112
0.00194347
0.00192666
0.00191062
0.00189532
0.0018807
0.00186674
0.00185339
0.00184062
0.0018284
0.0018167
0.00180549
0.00179475
0.00178445
0.00177456
0.00176508
0.00175598
0.00174723
0.00173883
0.00173076
0.001723
0.00171554
0.00170836
0.00170145
0.0016948
0.0016884
0.00168223
0.0016763
0.00167057
0.00166506
0.00165975
0.00165462
0.00164968
0.00164492
0.00164032
0.00163589
0.00163161
0.00162748
0.00162349
0.00161964
0.00161592
0.00161233
0.00160887
0.00160552
0.00160228
0.00159915
0.00159613
0.00159321
0.00159038
0.00158765
0.00158501
0.00158246
0.00157999
0.00157761
0.0015753
0.00157306
0.0015709
0.00156881
0.00156679
0.00156484
0.00156294
0.00156111
0.00155934
0.00155762
0.00155596
0.00155436
0.0015528
0.0015513
0.00154984
0.00154843
0.00154706
0.00154574
0.00154447
0.00154323
0.00154203
0.00154087
0.00153975
0.00153866
0.00153761
0.00153659
0.00153561
0.00153466
0.00153374
0.00153285
0.00153198
0.00153115
0.00153034
0.00152956
0.0015288
0.00152807
0.00152737
0.00152668
0.00152602
0.00152538
0.00152476
0.00152417
0.00152359
0.00152303
0.00152249
0.00152196
0.00152146
0.00152097
0.0015205
0.00152004
0.0015196
0.00151917
0.00151876
0.00151836
0.00151797
0.0015176
0.00151724
0.00151689
0.00151656
0.00151623
0.00151591
0.00151561
0.00151532
0.00151503
0.00151476
0.00151449
0.00151423
0.00151398
0.00151374
0.00151351
0.00151329
0.00151307
0.00151286
0.00151266
0.00151246
0.00151227
0.00151208
0.00151191
0.0212163
0.0142141
0.0105474
0.0084239
0.00707948
0.00616325
0.00550098
0.00499943
0.00460531
0.00428641
0.0040223
0.00379942
0.00360846
0.00344277
0.00329748
0.00316894
0.00305434
0.00295149
0.00285864
0.00277438
0.00269758
0.00262727
0.00256268
0.00250314
0.00244809
0.00239706
0.00234962
0.00230542
0.00226416
0.00222556
0.00218938
0.00215541
0.00212347
0.0020934
0.00206503
0.00203825
0.00201293
0.00198897
0.00196626
0.00194473
0.00192428
0.00190485
0.00188638
0.00186879
0.00185204
0.00183607
0.00182084
0.00180629
0.00179241
0.00177913
0.00176644
0.0017543
0.00174267
0.00173154
0.00172087
0.00171064
0.00170083
0.00169142
0.00168239
0.00167372
0.00166539
0.00165738
0.00164969
0.00164229
0.00163518
0.00162833
0.00162175
0.00161541
0.0016093
0.00160342
0.00159776
0.0015923
0.00158704
0.00158197
0.00157708
0.00157236
0.00156781
0.00156343
0.00155919
0.00155511
0.00155116
0.00154736
0.00154368
0.00154013
0.0015367
0.00153339
0.00153019
0.0015271
0.00152411
0.00152123
0.00151844
0.00151574
0.00151313
0.00151061
0.00150818
0.00150582
0.00150354
0.00150134
0.00149921
0.00149715
0.00149516
0.00149323
0.00149136
0.00148956
0.00148781
0.00148612
0.00148449
0.00148291
0.00148138
0.0014799
0.00147847
0.00147709
0.00147575
0.00147445
0.0014732
0.00147199
0.00147082
0.00146968
0.00146858
0.00146752
0.0014665
0.0014655
0.00146454
0.00146362
0.00146272
0.00146185
0.00146101
0.0014602
0.00145942
0.00145866
0.00145793
0.00145722
0.00145654
0.00145588
0.00145524
0.00145462
0.00145402
0.00145345
0.00145289
0.00145236
0.00145184
0.00145133
0.00145085
0.00145038
0.00144993
0.00144949
0.00144907
0.00144867
0.00144827
0.00144789
0.00144753
0.00144717
0.00144683
0.0014465
0.00144618
0.00144587
0.00144558
0.00144529
0.00144501
0.00144475
0.00144449
0.00144424
0.001444
0.00144376
0.00144354
0.00144332
0.00144311
0.00144291
0.00144271
0.00144252
0.00144234
0.00144216
0.00144199
0.00144183
0.00144167
0.0195716
0.0124788
0.00918189
0.00735529
0.00621957
0.00545044
0.00489432
0.00447134
0.00413685
0.00386432
0.00363707
0.00344412
0.00327788
0.00313294
0.00300529
0.00289193
0.00279052
0.00269922
0.00261657
0.00254139
0.0024727
0.00240969
0.00235169
0.00229813
0.00224853
0.00220248
0.00215961
0.00211962
0.00208223
0.00204722
0.00201437
0.0019835
0.00195444
0.00192705
0.0019012
0.00187677
0.00185366
0.00183176
0.00181101
0.00179131
0.00177259
0.0017548
0.00173786
0.00172174
0.00170637
0.00169171
0.00167772
0.00166437
0.0016516
0.0016394
0.00162772
0.00161655
0.00160584
0.00159559
0.00158576
0.00157634
0.0015673
0.00155862
0.00155029
0.00154229
0.0015346
0.00152721
0.00152011
0.00151328
0.00150671
0.00150038
0.0014943
0.00148844
0.00148279
0.00147735
0.00147212
0.00146707
0.0014622
0.00145751
0.00145298
0.00144862
0.00144441
0.00144035
0.00143643
0.00143264
0.00142899
0.00142547
0.00142206
0.00141877
0.0014156
0.00141253
0.00140956
0.0014067
0.00140393
0.00140126
0.00139868
0.00139618
0.00139376
0.00139143
0.00138917
0.00138699
0.00138489
0.00138285
0.00138088
0.00137897
0.00137713
0.00137534
0.00137362
0.00137196
0.00137034
0.00136879
0.00136728
0.00136582
0.00136442
0.00136306
0.00136174
0.00136047
0.00135924
0.00135805
0.0013569
0.00135579
0.00135472
0.00135368
0.00135268
0.00135171
0.00135078
0.00134988
0.001349
0.00134816
0.00134735
0.00134656
0.00134581
0.00134507
0.00134437
0.00134369
0.00134303
0.0013424
0.00134178
0.00134119
0.00134062
0.00134007
0.00133954
0.00133903
0.00133854
0.00133807
0.00133761
0.00133717
0.00133674
0.00133633
0.00133594
0.00133555
0.00133519
0.00133483
0.00133449
0.00133416
0.00133385
0.00133354
0.00133325
0.00133296
0.00133269
0.00133243
0.00133217
0.00133193
0.00133169
0.00133147
0.00133125
0.00133104
0.00133083
0.00133064
0.00133045
0.00133027
0.00133009
0.00132992
0.00132976
0.0013296
0.00132945
0.0013293
0.00132916
0.00132903
0.00132889
0.0174988
0.0105364
0.00769358
0.00619389
0.00528072
0.00466658
0.00422177
0.00388116
0.00360937
0.00338583
0.00319779
0.00303687
0.00289728
0.00277482
0.00266641
0.00256968
0.00248278
0.00240425
0.00233291
0.00226782
0.00220818
0.00215333
0.00210273
0.00205589
0.00201243
0.001972
0.0019343
0.00189908
0.0018661
0.00183516
0.0018061
0.00177875
0.00175298
0.00172866
0.00170568
0.00168395
0.00166336
0.00164385
0.00162533
0.00160773
0.00159101
0.0015751
0.00155994
0.0015455
0.00153173
0.00151859
0.00150604
0.00149404
0.00148258
0.00147161
0.00146111
0.00145106
0.00144143
0.0014322
0.00142334
0.00141485
0.0014067
0.00139888
0.00139136
0.00138414
0.0013772
0.00137053
0.00136412
0.00135794
0.001352
0.00134629
0.00134078
0.00133548
0.00133037
0.00132545
0.00132071
0.00131614
0.00131173
0.00130749
0.00130339
0.00129943
0.00129562
0.00129194
0.00128838
0.00128495
0.00128164
0.00127844
0.00127536
0.00127237
0.00126949
0.00126671
0.00126402
0.00126143
0.00125892
0.00125649
0.00125415
0.00125188
0.00124969
0.00124758
0.00124553
0.00124356
0.00124164
0.0012398
0.00123801
0.00123629
0.00123462
0.00123301
0.00123145
0.00122995
0.00122849
0.00122708
0.00122573
0.00122441
0.00122315
0.00122192
0.00122074
0.0012196
0.00121849
0.00121743
0.0012164
0.00121541
0.00121445
0.00121353
0.00121264
0.00121178
0.00121095
0.00121015
0.00120937
0.00120863
0.00120791
0.00120722
0.00120656
0.00120592
0.0012053
0.00120471
0.00120413
0.00120358
0.00120305
0.00120254
0.00120205
0.00120158
0.00120112
0.00120069
0.00120027
0.00119986
0.00119947
0.0011991
0.00119874
0.0011984
0.00119806
0.00119775
0.00119744
0.00119715
0.00119686
0.00119659
0.00119633
0.00119608
0.00119584
0.00119561
0.00119539
0.00119518
0.00119497
0.00119478
0.00119459
0.00119441
0.00119423
0.00119407
0.00119391
0.00119375
0.00119361
0.00119346
0.00119333
0.0011932
0.00119307
0.00119295
0.00119283
0.00119272
0.00119262
0.00119251
0.00119241
0.0151955
0.00863597
0.00627439
0.00508762
0.00438051
0.00390796
0.00356432
0.00329858
0.00308403
0.00290556
0.0027539
0.00262296
0.0025085
0.00240742
0.00231741
0.00223667
0.0021638
0.00209768
0.00203739
0.00198219
0.00193145
0.00188466
0.00184137
0.00180121
0.00176385
0.00172903
0.0016965
0.00166604
0.00163748
0.00161065
0.0015854
0.00156161
0.00153916
0.00151794
0.00149788
0.00147887
0.00146086
0.00144376
0.00142752
0.00141208
0.00139739
0.0013834
0.00137006
0.00135734
0.00134521
0.00133362
0.00132254
0.00131195
0.00130182
0.00129213
0.00128284
0.00127395
0.00126542
0.00125724
0.0012494
0.00124187
0.00123464
0.0012277
0.00122103
0.00121462
0.00120845
0.00120252
0.00119682
0.00119133
0.00118605
0.00118096
0.00117606
0.00117134
0.0011668
0.00116241
0.00115819
0.00115412
0.00115019
0.0011464
0.00114275
0.00113922
0.00113582
0.00113253
0.00112936
0.0011263
0.00112335
0.00112049
0.00111774
0.00111507
0.0011125
0.00111002
0.00110762
0.0011053
0.00110306
0.00110089
0.0010988
0.00109678
0.00109482
0.00109294
0.00109111
0.00108935
0.00108764
0.001086
0.00108441
0.00108287
0.00108138
0.00107995
0.00107856
0.00107723
0.00107593
0.00107469
0.00107348
0.00107232
0.00107119
0.00107011
0.00106907
0.00106806
0.00106708
0.00106615
0.00106524
0.00106437
0.00106353
0.00106272
0.00106194
0.00106119
0.00106047
0.00105977
0.0010591
0.00105846
0.00105784
0.00105724
0.00105667
0.00105612
0.00105559
0.00105509
0.0010546
0.00105413
0.00105368
0.00105325
0.00105284
0.00105244
0.00105207
0.0010517
0.00105135
0.00105102
0.0010507
0.0010504
0.0010501
0.00104982
0.00104956
0.0010493
0.00104906
0.00104882
0.0010486
0.00104838
0.00104818
0.00104798
0.0010478
0.00104762
0.00104745
0.00104729
0.00104713
0.00104699
0.00104684
0.00104671
0.00104658
0.00104646
0.00104634
0.00104623
0.00104612
0.00104602
0.00104593
0.00104583
0.00104574
0.00104566
0.00104558
0.0010455
0.00104543
0.00104536
0.00104529
0.012835
0.00691594
0.00501756
0.00410651
0.00357522
0.00322174
0.00296272
0.00275973
0.0025935
0.00245343
0.0023331
0.00222824
0.00213584
0.00205368
0.00198006
0.00191368
0.00185348
0.00179861
0.00174838
0.00170223
0.00165968
0.00162031
0.00158379
0.00154982
0.00151816
0.00148857
0.00146087
0.00143489
0.00141049
0.00138752
0.00136587
0.00134545
0.00132614
0.00130788
0.00129059
0.00127419
0.00125862
0.00124384
0.00122978
0.0012164
0.00120366
0.00119151
0.00117993
0.00116887
0.00115831
0.00114822
0.00113857
0.00112934
0.00112051
0.00111205
0.00110394
0.00109617
0.00108871
0.00108156
0.0010747
0.00106811
0.00106178
0.0010557
0.00104985
0.00104423
0.00103882
0.00103362
0.00102862
0.0010238
0.00101916
0.00101469
0.00101039
0.00100624
0.00100224
0.000998388
0.000994673
0.000991091
0.000987635
0.000984301
0.000981085
0.000977981
0.000974985
0.000972093
0.000969301
0.000966605
0.000964001
0.000961487
0.000959058
0.000956712
0.000954446
0.000952257
0.000950141
0.000948098
0.000946123
0.000944215
0.000942371
0.00094059
0.000938869
0.000937206
0.000935599
0.000934046
0.000932547
0.000931098
0.000929699
0.000928347
0.000927042
0.000925782
0.000924566
0.000923391
0.000922258
0.000921165
0.00092011
0.000919093
0.000918112
0.000917166
0.000916254
0.000915376
0.00091453
0.000913715
0.000912931
0.000912176
0.000911449
0.000910751
0.000910079
0.000909433
0.000908813
0.000908217
0.000907645
0.000907096
0.000906569
0.000906064
0.00090558
0.000905116
0.000904672
0.000904247
0.00090384
0.00090345
0.000903078
0.000902723
0.000902383
0.000902059
0.000901749
0.000901454
0.000901173
0.000900905
0.00090065
0.000900407
0.000900176
0.000899956
0.000899747
0.000899549
0.00089936
0.000899181
0.000899011
0.00089885
0.000898698
0.000898553
0.000898417
0.000898287
0.000898165
0.000898049
0.000897939
0.000897836
0.000897738
0.000897646
0.000897559
0.000897477
0.0008974
0.000897328
0.000897259
0.000897195
0.000897134
0.000897077
0.000897023
0.000896973
0.000896926
0.000896882
0.00089684
0.000896801
0.000896765
0.01056
0.0054366
0.00395405
0.00327274
0.0028835
0.0026248
0.00243283
0.00227976
0.00215236
0.00204355
0.00194903
0.00186589
0.00179205
0.00172594
0.00166635
0.00161233
0.00156309
0.00151803
0.00147661
0.00143842
0.00140309
0.00137031
0.00133982
0.00131138
0.00128481
0.00125993
0.00123659
0.00121466
0.00119401
0.00117456
0.00115619
0.00113883
0.00112241
0.00110685
0.0010921
0.00107809
0.00106479
0.00105214
0.00104009
0.00102862
0.00101769
0.00100726
0.000997305
0.000987797
0.00097871
0.000970021
0.000961708
0.000953749
0.000946127
0.000938824
0.000931822
0.000925108
0.000918666
0.000912482
0.000906545
0.000900842
0.000895362
0.000890095
0.000885031
0.00088016
0.000875474
0.000870965
0.000866624
0.000862444
0.000858418
0.00085454
0.000850804
0.000847203
0.000843731
0.000840384
0.000837157
0.000834044
0.00083104
0.000828143
0.000825346
0.000822647
0.000820042
0.000817527
0.000815098
0.000812753
0.000810488
0.000808301
0.000806188
0.000804147
0.000802175
0.00080027
0.000798429
0.000796651
0.000794933
0.000793273
0.000791669
0.00079012
0.000788623
0.000787177
0.00078578
0.000784431
0.000783128
0.000781869
0.000780655
0.000779482
0.000778349
0.000777257
0.000776203
0.000775186
0.000774205
0.000773259
0.000772348
0.000771469
0.000770623
0.000769808
0.000769023
0.000768268
0.000767542
0.000766843
0.000766171
0.000765526
0.000764906
0.00076431
0.000763739
0.000763191
0.000762665
0.000762162
0.000761679
0.000761218
0.000760776
0.000760353
0.00075995
0.000759564
0.000759196
0.000758845
0.00075851
0.000758192
0.000757888
0.0007576
0.000757325
0.000757065
0.000756817
0.000756583
0.000756361
0.00075615
0.000755952
0.000755764
0.000755586
0.000755419
0.000755261
0.000755113
0.000754973
0.000754842
0.000754719
0.000754604
0.000754496
0.000754396
0.000754302
0.000754214
0.000754132
0.000754057
0.000753986
0.000753921
0.000753861
0.000753806
0.000753755
0.000753708
0.000753665
0.000753626
0.000753591
0.000753558
0.000753529
0.000753503
0.000753479
0.000753458
0.00075344
0.000753424
0.00075341
0.000753398
0.000753388
0.00847442
0.00420858
0.00308023
0.00258264
0.0023037
0.00211745
0.0019766
0.00186192
0.0017648
0.00168073
0.00160691
0.00154141
0.00148279
0.00142996
0.00138207
0.00133842
0.00129845
0.00126172
0.00122784
0.00119648
0.00116738
0.00114031
0.00111505
0.00109145
0.00106934
0.0010486
0.0010291
0.00101074
0.00099344
0.000977105
0.000961664
0.000947051
0.000933207
0.000920077
0.000907613
0.00089577
0.000884506
0.000873786
0.000863574
0.00085384
0.000844555
0.000835692
0.000827227
0.000819137
0.0008114
0.000803999
0.000796914
0.000790128
0.000783627
0.000777394
0.000771417
0.000765683
0.00076018
0.000754896
0.000749821
0.000744945
0.000740258
0.000735752
0.000731419
0.00072725
0.000723239
0.000719378
0.00071566
0.00071208
0.000708632
0.00070531
0.000702108
0.000699022
0.000696047
0.000693178
0.000690411
0.000687742
0.000685167
0.000682682
0.000680284
0.000677969
0.000675735
0.000673577
0.000671494
0.000669483
0.00066754
0.000665664
0.000663851
0.0006621
0.000660409
0.000658775
0.000657197
0.000655672
0.000654198
0.000652775
0.0006514
0.000650072
0.000648789
0.00064755
0.000646353
0.000645197
0.000644082
0.000643005
0.000641965
0.000640962
0.000639994
0.00063906
0.00063816
0.000637292
0.000636456
0.00063565
0.000634873
0.000634126
0.000633406
0.000632714
0.000632048
0.000631408
0.000630793
0.000630203
0.000629635
0.000629091
0.00062857
0.000628069
0.00062759
0.000627132
0.000626693
0.000626273
0.000625872
0.00062549
0.000625124
0.000624776
0.000624445
0.000624129
0.000623829
0.000623543
0.000623272
0.000623016
0.000622772
0.000622542
0.000622324
0.000622119
0.000621925
0.000621743
0.000621571
0.00062141
0.000621259
0.000621117
0.000620985
0.000620862
0.000620747
0.00062064
0.000620542
0.00062045
0.000620366
0.000620289
0.000620218
0.000620153
0.000620094
0.000620041
0.000619993
0.00061995
0.000619912
0.000619878
0.000619848
0.000619823
0.000619801
0.000619783
0.000619768
0.000619756
0.000619747
0.000619741
0.000619737
0.000619736
0.000619737
0.00061974
0.000619745
0.000619752
0.00061976
0.00061977
0.000619781
0.0066414
0.00321471
0.00237598
0.00202073
0.00182471
0.00169211
0.00158918
0.00150337
0.00142946
0.00136468
0.00130723
0.00125584
0.00120952
0.00116752
0.00112924
0.00109418
0.00106194
0.0010322
0.00100467
0.000979104
0.000955313
0.000933118
0.000912367
0.000892927
0.000874683
0.000857533
0.000841386
0.000826161
0.000811788
0.0007982
0.000785341
0.000773158
0.000761604
0.000750636
0.000740215
0.000730304
0.000720872
0.000711889
0.000703326
0.00069516
0.000687365
0.000679922
0.000672809
0.000666009
0.000659504
0.000653278
0.000647317
0.000641606
0.000636133
0.000630885
0.000625851
0.000621021
0.000616384
0.000611932
0.000607655
0.000603545
0.000599595
0.000595796
0.000592143
0.000588629
0.000585246
0.000581991
0.000578856
0.000575838
0.00057293
0.000570128
0.000567428
0.000564826
0.000562317
0.000559898
0.000557565
0.000555314
0.000553143
0.000551048
0.000549026
0.000547074
0.000545191
0.000543372
0.000541616
0.000539921
0.000538283
0.000536702
0.000535174
0.000533699
0.000532274
0.000530897
0.000529568
0.000528283
0.000527043
0.000525844
0.000524687
0.000523569
0.000522489
0.000521447
0.00052044
0.000519469
0.000518531
0.000517626
0.000516753
0.000515911
0.000515098
0.000514315
0.00051356
0.000512833
0.000512133
0.000511458
0.000510809
0.000510185
0.000509584
0.000509007
0.000508452
0.00050792
0.000507409
0.000506918
0.000506448
0.000505998
0.000505566
0.000505154
0.000504759
0.000504382
0.000504022
0.000503679
0.000503351
0.00050304
0.000502743
0.000502461
0.000502193
0.000501939
0.000501699
0.000501471
0.000501256
0.000501053
0.000500862
0.000500682
0.000500512
0.000500354
0.000500205
0.000500066
0.000499937
0.000499817
0.000499705
0.000499602
0.000499507
0.000499419
0.000499339
0.000499266
0.0004992
0.000499141
0.000499087
0.00049904
0.000498998
0.000498961
0.000498929
0.000498903
0.00049888
0.000498863
0.000498849
0.000498839
0.000498833
0.00049883
0.00049883
0.000498834
0.00049884
0.000498849
0.00049886
0.000498874
0.000498889
0.000498907
0.000498926
0.000498947
0.00049897
0.000498994
0.000499019
0.000499045
0.000499073
0.00508722
0.00242495
0.00181552
0.00156761
0.00143221
0.00133831
0.00126299
0.00119868
0.00114242
0.00109257
0.00104799
0.00100781
0.000971378
0.000938156
0.000907725
0.000879736
0.000853902
0.000829982
0.000807771
0.000787094
0.0007678
0.000749759
0.000732857
0.000716994
0.000702082
0.000688042
0.000674806
0.000662311
0.0006505
0.000639325
0.00062874
0.000618703
0.000609177
0.000600129
0.000591527
0.000583342
0.00057555
0.000568125
0.000561046
0.000554292
0.000547845
0.000541687
0.000535802
0.000530174
0.000524791
0.000519638
0.000514704
0.000509977
0.000505447
0.000501104
0.000496938
0.000492941
0.000489104
0.00048542
0.000481882
0.000478482
0.000475215
0.000472074
0.000469053
0.000466147
0.000463352
0.000460661
0.000458071
0.000455577
0.000453175
0.000450861
0.000448632
0.000446483
0.000444412
0.000442415
0.00044049
0.000438633
0.000436842
0.000435115
0.000433448
0.000431839
0.000430286
0.000428787
0.000427341
0.000425944
0.000424595
0.000423293
0.000422035
0.000420821
0.000419648
0.000418516
0.000417422
0.000416365
0.000415345
0.00041436
0.000413409
0.000412491
0.000411604
0.000410748
0.000409922
0.000409125
0.000408355
0.000407613
0.000406898
0.000406208
0.000405543
0.000404902
0.000404285
0.00040369
0.000403118
0.000402567
0.000402038
0.000401529
0.000401039
0.00040057
0.000400119
0.000399686
0.000399272
0.000398874
0.000398494
0.00039813
0.000397782
0.00039745
0.000397133
0.00039683
0.000396542
0.000396267
0.000396006
0.000395759
0.000395523
0.000395301
0.00039509
0.00039489
0.000394702
0.000394525
0.000394358
0.000394201
0.000394055
0.000393917
0.000393789
0.00039367
0.00039356
0.000393457
0.000393363
0.000393276
0.000393196
0.000393124
0.000393059
0.000393
0.000392947
0.0003929
0.000392859
0.000392824
0.000392794
0.000392768
0.000392748
0.000392732
0.000392721
0.000392713
0.00039271
0.00039271
0.000392714
0.000392721
0.000392731
0.000392744
0.00039276
0.000392778
0.000392799
0.000392822
0.000392847
0.000392874
0.000392903
0.000392933
0.000392965
0.000392998
0.000393032
0.000393068
0.000393104
0.000393142
0.00039318
0.0038094
0.00180571
0.00137306
0.00120416
0.00111192
0.00104535
0.000989949
0.000941625
0.000898815
0.000860544
0.000826068
0.000794808
0.000766306
0.000740195
0.000716178
0.000694007
0.000673477
0.000654412
0.000636665
0.000620105
0.000604623
0.000590121
0.000576514
0.000563725
0.000551689
0.000540346
0.000529642
0.00051953
0.000509966
0.000500912
0.000492332
0.000484194
0.000476469
0.000469129
0.000462151
0.000455511
0.000449189
0.000443166
0.000437424
0.000431947
0.000426719
0.000421727
0.000416957
0.000412397
0.000408036
0.000403864
0.00039987
0.000396045
0.000392381
0.000388869
0.000385502
0.000382272
0.000379174
0.0003762
0.000373345
0.000370603
0.000367969
0.000365437
0.000363004
0.000360665
0.000358414
0.00035625
0.000354167
0.000352162
0.000350232
0.000348374
0.000346584
0.00034486
0.000343199
0.000341598
0.000340055
0.000338567
0.000337133
0.000335749
0.000334415
0.000333128
0.000331886
0.000330688
0.000329532
0.000328416
0.000327339
0.0003263
0.000325296
0.000324327
0.000323392
0.000322489
0.000321617
0.000320776
0.000319964
0.000319179
0.000318422
0.000317692
0.000316987
0.000316306
0.00031565
0.000315017
0.000314406
0.000313818
0.00031325
0.000312703
0.000312176
0.000311669
0.00031118
0.00031071
0.000310258
0.000309823
0.000309405
0.000309004
0.000308618
0.000308249
0.000307894
0.000307554
0.000307229
0.000306918
0.00030662
0.000306336
0.000306064
0.000305805
0.000305559
0.000305324
0.000305101
0.000304889
0.000304687
0.000304497
0.000304316
0.000304146
0.000303985
0.000303834
0.000303692
0.000303559
0.000303434
0.000303317
0.000303209
0.000303108
0.000303015
0.000302928
0.000302849
0.000302777
0.000302711
0.000302651
0.000302597
0.00030255
0.000302507
0.00030247
0.000302439
0.000302412
0.00030239
0.000302372
0.000302359
0.00030235
0.000302344
0.000302343
0.000302345
0.000302351
0.00030236
0.000302372
0.000302387
0.000302404
0.000302425
0.000302447
0.000302473
0.0003025
0.000302529
0.00030256
0.000302593
0.000302628
0.000302664
0.000302701
0.00030274
0.00030278
0.000302821
0.000302863
0.000302905
0.000302949
0.000302993
0.0027863
0.00132493
0.00102547
0.000913351
0.000851027
0.000803517
0.00076253
0.000726188
0.000693703
0.000664467
0.00063798
0.000613844
0.000591743
0.000571419
0.000552663
0.000535301
0.000519183
0.000504185
0.000490197
0.000477126
0.000464889
0.000453415
0.00044264
0.000432506
0.000422964
0.000413967
0.000405477
0.000397454
0.000389867
0.000382685
0.000375881
0.000369429
0.000363306
0.000357492
0.000351967
0.000346712
0.000341712
0.000336952
0.000332416
0.000328093
0.00032397
0.000320035
0.000316279
0.000312691
0.000309262
0.000305984
0.000302848
0.000299848
0.000296976
0.000294226
0.000291592
0.000289067
0.000286647
0.000284326
0.0002821
0.000279963
0.000277912
0.000275943
0.000274051
0.000272234
0.000270488
0.000268809
0.000267195
0.000265642
0.000264149
0.000262712
0.000261328
0.000259997
0.000258715
0.00025748
0.000256291
0.000255145
0.000254041
0.000252977
0.000251951
0.000250962
0.000250008
0.000249089
0.000248202
0.000247347
0.000246521
0.000245725
0.000244957
0.000244216
0.000243501
0.000242811
0.000242145
0.000241503
0.000240883
0.000240285
0.000239708
0.000239151
0.000238614
0.000238096
0.000237597
0.000237116
0.000236652
0.000236204
0.000235774
0.000235359
0.00023496
0.000234575
0.000234205
0.00023385
0.000233508
0.000233179
0.000232864
0.000232561
0.000232271
0.000231992
0.000231726
0.000231471
0.000231227
0.000230994
0.000230771
0.000230559
0.000230356
0.000230164
0.000229981
0.000229807
0.000229641
0.000229485
0.000229337
0.000229197
0.000229065
0.000228941
0.000228825
0.000228715
0.000228613
0.000228518
0.000228429
0.000228346
0.00022827
0.0002282
0.000228136
0.000228077
0.000228024
0.000227976
0.000227933
0.000227895
0.000227861
0.000227833
0.000227808
0.000227788
0.000227772
0.000227759
0.000227751
0.000227746
0.000227744
0.000227746
0.000227751
0.000227759
0.000227769
0.000227783
0.000227799
0.000227817
0.000227838
0.000227862
0.000227887
0.000227914
0.000227943
0.000227974
0.000228007
0.000228041
0.000228077
0.000228114
0.000228153
0.000228192
0.000228233
0.000228275
0.000228317
0.000228361
0.000228405
0.00022845
0.000228495
0.00198582
0.000954448
0.000753253
0.000680865
0.000638784
0.000604548
0.000574161
0.000546953
0.000522501
0.000500393
0.000480283
0.000461892
0.000444999
0.000429424
0.000415019
0.000401661
0.000389242
0.000377673
0.000366874
0.000356777
0.000347321
0.000338454
0.000330127
0.000322298
0.000314929
0.000307985
0.000301436
0.000295252
0.00028941
0.000283885
0.000278656
0.000273703
0.000269008
0.000264555
0.000260329
0.000256316
0.000252502
0.000248875
0.000245425
0.00024214
0.000239012
0.000236032
0.00023319
0.00023048
0.000227893
0.000225424
0.000223065
0.000220812
0.000218658
0.000216598
0.000214627
0.000212741
0.000210935
0.000209206
0.000207549
0.000205961
0.000204439
0.000202978
0.000201578
0.000200234
0.000198944
0.000197705
0.000196515
0.000195372
0.000194273
0.000193217
0.000192202
0.000191226
0.000190287
0.000189383
0.000188513
0.000187676
0.00018687
0.000186094
0.000185347
0.000184627
0.000183934
0.000183265
0.000182621
0.000182
0.000181402
0.000180825
0.000180269
0.000179733
0.000179216
0.000178717
0.000178236
0.000177773
0.000177326
0.000176895
0.000176479
0.000176078
0.000175692
0.00017532
0.000174962
0.000174616
0.000174283
0.000173963
0.000173654
0.000173358
0.000173072
0.000172797
0.000172533
0.00017228
0.000172036
0.000171802
0.000171578
0.000171362
0.000171156
0.000170959
0.00017077
0.00017059
0.000170418
0.000170254
0.000170097
0.000169948
0.000169806
0.000169671
0.000169543
0.000169422
0.000169308
0.0001692
0.000169097
0.000169001
0.000168911
0.000168827
0.000168748
0.000168674
0.000168605
0.000168542
0.000168483
0.000168429
0.00016838
0.000168335
0.000168294
0.000168258
0.000168225
0.000168197
0.000168172
0.000168151
0.000168133
0.000168118
0.000168107
0.000168099
0.000168094
0.000168092
0.000168093
0.000168096
0.000168102
0.00016811
0.000168121
0.000168134
0.000168149
0.000168167
0.000168186
0.000168207
0.00016823
0.000168255
0.000168281
0.000168309
0.000168338
0.000168369
0.000168401
0.000168435
0.000168469
0.000168505
0.000168542
0.00016858
0.000168618
0.000168658
0.000168698
0.00016874
0.000168781
0.000168824
0.000168867
0.00137232
0.00067081
0.000540573
0.000495143
0.000466521
0.000441714
0.000419346
0.000399254
0.000381158
0.000364755
0.000349799
0.000336094
0.000323486
0.000311848
0.000301076
0.000291081
0.000281788
0.000273133
0.000265057
0.000257512
0.000250452
0.000243839
0.000237636
0.000231813
0.000226341
0.000221194
0.000216347
0.000211781
0.000207475
0.00020341
0.000199572
0.000195944
0.000192513
0.000189266
0.000186191
0.000183278
0.000180515
0.000177894
0.000175406
0.000173043
0.000170797
0.000168662
0.000166631
0.000164698
0.000162858
0.000161104
0.000159433
0.000157839
0.000156319
0.000154868
0.000153482
0.000152159
0.000150894
0.000149685
0.000148529
0.000147423
0.000146364
0.00014535
0.000144379
0.000143449
0.000142558
0.000141703
0.000140884
0.000140098
0.000139343
0.000138619
0.000137923
0.000137256
0.000136614
0.000135997
0.000135405
0.000134835
0.000134287
0.00013376
0.000133253
0.000132765
0.000132296
0.000131844
0.000131409
0.00013099
0.000130587
0.000130198
0.000129824
0.000129463
0.000129116
0.000128781
0.000128459
0.000128148
0.000127849
0.00012756
0.000127283
0.000127015
0.000126757
0.000126509
0.00012627
0.000126041
0.000125819
0.000125606
0.000125402
0.000125205
0.000125015
0.000124834
0.000124659
0.000124492
0.000124331
0.000124177
0.000124029
0.000123887
0.000123752
0.000123623
0.0001235
0.000123382
0.00012327
0.000123163
0.000123061
0.000122965
0.000122873
0.000122786
0.000122704
0.000122627
0.000122554
0.000122486
0.000122421
0.000122361
0.000122305
0.000122252
0.000122204
0.000122159
0.000122117
0.000122079
0.000122045
0.000122013
0.000121985
0.00012196
0.000121938
0.000121918
0.000121902
0.000121888
0.000121876
0.000121867
0.000121861
0.000121857
0.000121855
0.000121855
0.000121857
0.000121862
0.000121868
0.000121876
0.000121886
0.000121898
0.000121911
0.000121926
0.000121943
0.000121961
0.000121981
0.000122001
0.000122023
0.000122047
0.000122071
0.000122097
0.000122124
0.000122152
0.000122181
0.00012221
0.000122241
0.000122273
0.000122305
0.000122339
0.000122373
0.000122408
0.000122443
0.000122479
0.000122516
0.000122554
0.000122592
0.000911168
0.000455142
0.000374915
0.000347152
0.000327513
0.000309703
0.000293619
0.000279206
0.000266228
0.000254461
0.000243728
0.000233892
0.000224846
0.000216502
0.000208785
0.000201636
0.000194999
0.000188828
0.000183084
0.000177729
0.000172732
0.000168064
0.000163698
0.000159612
0.000155784
0.000152195
0.000148826
0.000145663
0.00014269
0.000139894
0.000137261
0.000134782
0.000132446
0.000130242
0.000128162
0.000126197
0.000124341
0.000122585
0.000120924
0.000119352
0.000117862
0.00011645
0.00011511
0.00011384
0.000112633
0.000111487
0.000110397
0.000109361
0.000108375
0.000107437
0.000106543
0.000105691
0.000104879
0.000104105
0.000103366
0.000102661
0.000101988
0.000101344
0.000100729
0.000100141
9.95784e-05
9.90402e-05
9.85249e-05
9.80315e-05
9.75588e-05
9.71058e-05
9.66716e-05
9.62553e-05
9.58559e-05
9.54727e-05
9.5105e-05
9.47519e-05
9.44128e-05
9.40871e-05
9.37742e-05
9.34734e-05
9.31844e-05
9.29064e-05
9.26392e-05
9.23821e-05
9.21349e-05
9.1897e-05
9.16681e-05
9.14478e-05
9.12358e-05
9.10318e-05
9.08354e-05
9.06464e-05
9.04645e-05
9.02894e-05
9.01209e-05