/*--------------------------------*- C++ -*----------------------------------*\
| =========                 |                                                 |
| \\      /  F ield         | OpenFOAM: The Open Source CFD Toolbox           |
|  \\    /   O peration     | Version:  2.1.1                                 |
|   \\  /    A nd           | Web:      www.OpenFOAM.org                      |
|    \\/     M anipulation  |                                                 |
\*---------------------------------------------------------------------------*/
FoamFile
{
    version     2.0;
    format      ascii;
    class       volScalarField;
    location    "4800";
    object      nut;
}
// * * * * * * * * * * * * * * * * * * * * * * * * * * * * * * * * * * * * * //

dimensions      [0 2 -1 0 0 0 0];

internalField   nonuniform List<scalar> 
54800
(
0.0177605
0.012282
0.00917082
0.00731461
0.00612552
0.00531175
0.00472343
0.00427886
0.00393071
0.00365012
0.00341866
0.00322406
0.00305789
0.00291414
0.00278842
0.00267746
0.00257873
0.00249029
0.00241059
0.00233837
0.00227263
0.00221254
0.00215739
0.00210661
0.00205971
0.00201627
0.00197592
0.00193836
0.00190333
0.00187057
0.00183989
0.0018111
0.00178405
0.00175859
0.0017346
0.00171195
0.00169055
0.0016703
0.00165112
0.00163294
0.00161569
0.0015993
0.00158372
0.0015689
0.00155478
0.00154133
0.0015285
0.00151625
0.00150456
0.00149339
0.00148271
0.0014725
0.00146272
0.00145336
0.00144439
0.0014358
0.00142756
0.00141965
0.00141206
0.00140478
0.00139779
0.00139107
0.00138461
0.0013784
0.00137243
0.00136669
0.00136116
0.00135584
0.00135072
0.00134579
0.00134104
0.00133646
0.00133205
0.0013278
0.0013237
0.00131975
0.00131594
0.00131226
0.00130871
0.00130529
0.00130198
0.00129879
0.00129571
0.00129274
0.00128987
0.00128709
0.00128441
0.00128182
0.00127932
0.0012769
0.00127457
0.00127231
0.00127012
0.00126801
0.00126597
0.00126399
0.00126209
0.00126024
0.00125845
0.00125672
0.00125505
0.00125343
0.00125187
0.00125035
0.00124889
0.00124747
0.0012461
0.00124477
0.00124349
0.00124224
0.00124104
0.00123987
0.00123874
0.00123765
0.00123659
0.00123557
0.00123458
0.00123362
0.0012327
0.0012318
0.00123093
0.00123009
0.00122928
0.00122849
0.00122773
0.00122699
0.00122628
0.00122559
0.00122492
0.00122427
0.00122365
0.00122304
0.00122246
0.00122189
0.00122135
0.00122082
0.00122031
0.00121981
0.00121933
0.00121887
0.00121842
0.00121799
0.00121757
0.00121717
0.00121678
0.0012164
0.00121603
0.00121568
0.00121534
0.00121501
0.00121469
0.00121438
0.00121408
0.00121379
0.00121351
0.00121324
0.00121298
0.00121273
0.00121249
0.00121225
0.00121202
0.0012118
0.00121159
0.00121139
0.00121119
0.00121099
0.00121081
0.00121063
0.00121046
0.00121029
0.00121012
0.00120997
0.00120981
0.00120967
0.00120953
0.0169731
0.0113713
0.00843793
0.00673912
0.00566358
0.0049306
0.00440079
0.00399955
0.00368425
0.00342913
0.00321784
0.00303954
0.00288677
0.00275421
0.00263798
0.00253515
0.00244348
0.00236119
0.00228691
0.00221951
0.00215806
0.00210182
0.00205014
0.00200251
0.00195848
0.00191765
0.0018797
0.00184434
0.00181133
0.00178045
0.0017515
0.00172433
0.00169878
0.00167472
0.00165203
0.0016306
0.00161035
0.00159118
0.00157301
0.00155578
0.00153943
0.00152388
0.0015091
0.00149503
0.00148163
0.00146885
0.00145667
0.00144504
0.00143392
0.00142331
0.00141315
0.00140344
0.00139414
0.00138523
0.0013767
0.00136851
0.00136067
0.00135314
0.00134591
0.00133897
0.00133231
0.00132591
0.00131975
0.00131383
0.00130814
0.00130267
0.0012974
0.00129232
0.00128744
0.00128274
0.0012782
0.00127384
0.00126963
0.00126557
0.00126166
0.00125789
0.00125425
0.00125074
0.00124735
0.00124409
0.00124093
0.00123788
0.00123494
0.0012321
0.00122936
0.00122671
0.00122415
0.00122168
0.00121929
0.00121698
0.00121475
0.00121259
0.00121051
0.00120849
0.00120654
0.00120466
0.00120283
0.00120107
0.00119937
0.00119772
0.00119612
0.00119458
0.00119309
0.00119165
0.00119025
0.0011889
0.00118759
0.00118633
0.00118511
0.00118392
0.00118278
0.00118167
0.0011806
0.00117956
0.00117856
0.00117759
0.00117665
0.00117574
0.00117487
0.00117402
0.0011732
0.0011724
0.00117164
0.00117089
0.00117018
0.00116948
0.00116881
0.00116816
0.00116753
0.00116693
0.00116634
0.00116578
0.00116523
0.0011647
0.00116419
0.0011637
0.00116322
0.00116276
0.00116231
0.00116188
0.00116147
0.00116107
0.00116068
0.00116031
0.00115994
0.0011596
0.00115926
0.00115893
0.00115862
0.00115832
0.00115802
0.00115774
0.00115747
0.0011572
0.00115695
0.0011567
0.00115646
0.00115623
0.00115601
0.0011558
0.00115559
0.00115539
0.0011552
0.00115501
0.00115483
0.00115466
0.00115449
0.00115433
0.00115417
0.00115402
0.00115387
0.00115373
0.00115359
0.00115346
0.00115333
0.0156573
0.00998307
0.00734551
0.00588423
0.00497565
0.00436035
0.00391545
0.00357707
0.00330948
0.00309145
0.00290966
0.0027553
0.00262231
0.00250635
0.00240424
0.00231355
0.00223242
0.00215938
0.00209326
0.00203311
0.00197816
0.00192775
0.00188135
0.0018385
0.00179883
0.00176198
0.00172769
0.00169569
0.00166579
0.00163778
0.0016115
0.0015868
0.00156355
0.00154164
0.00152096
0.00150142
0.00148293
0.00146541
0.00144881
0.00143305
0.00141807
0.00140384
0.00139029
0.00137739
0.0013651
0.00135337
0.00134218
0.00133149
0.00132128
0.00131152
0.00130218
0.00129324
0.00128468
0.00127647
0.00126861
0.00126107
0.00125384
0.0012469
0.00124023
0.00123383
0.00122768
0.00122177
0.00121609
0.00121062
0.00120537
0.00120031
0.00119544
0.00119075
0.00118623
0.00118188
0.00117769
0.00117365
0.00116976
0.00116601
0.00116239
0.0011589
0.00115553
0.00115228
0.00114914
0.00114612
0.00114319
0.00114037
0.00113765
0.00113502
0.00113248
0.00113002
0.00112765
0.00112536
0.00112315
0.00112101
0.00111894
0.00111694
0.00111501
0.00111314
0.00111134
0.0011096
0.00110791
0.00110628
0.0011047
0.00110318
0.0011017
0.00110028
0.0010989
0.00109756
0.00109628
0.00109503
0.00109382
0.00109266
0.00109153
0.00109044
0.00108939
0.00108837
0.00108739
0.00108644
0.00108552
0.00108463
0.00108377
0.00108295
0.00108214
0.00108137
0.00108062
0.0010799
0.0010792
0.00107853
0.00107788
0.00107725
0.00107664
0.00107606
0.00107549
0.00107495
0.00107442
0.00107392
0.00107343
0.00107295
0.0010725
0.00107206
0.00107164
0.00107123
0.00107083
0.00107045
0.00107009
0.00106973
0.00106939
0.00106906
0.00106875
0.00106844
0.00106815
0.00106787
0.00106759
0.00106733
0.00106708
0.00106683
0.0010666
0.00106637
0.00106615
0.00106594
0.00106574
0.00106554
0.00106535
0.00106517
0.001065
0.00106483
0.00106467
0.00106451
0.00106436
0.00106421
0.00106407
0.00106394
0.00106381
0.00106368
0.00106356
0.00106344
0.00106333
0.00106322
0.00106312
0.0139991
0.00842913
0.00615486
0.00495511
0.00422457
0.00373326
0.00337742
0.00310493
0.00288749
0.00270866
0.00255823
0.0024295
0.00231782
0.00221986
0.00213313
0.00205574
0.00198622
0.0019234
0.00186633
0.00181426
0.00176654
0.00172267
0.00168218
0.00164472
0.00160995
0.0015776
0.00154744
0.00151926
0.00149288
0.00146813
0.00144488
0.001423
0.00140238
0.00138293
0.00136455
0.00134716
0.00133069
0.00131508
0.00130026
0.00128619
0.00127281
0.00126008
0.00124795
0.0012364
0.00122538
0.00121487
0.00120483
0.00119523
0.00118606
0.00117729
0.00116889
0.00116085
0.00115314
0.00114576
0.00113868
0.00113188
0.00112536
0.0011191
0.00111309
0.00110731
0.00110176
0.00109643
0.00109129
0.00108635
0.0010816
0.00107703
0.00107263
0.00106838
0.0010643
0.00106036
0.00105657
0.00105291
0.00104939
0.00104599
0.00104271
0.00103955
0.00103649
0.00103355
0.00103071
0.00102796
0.00102531
0.00102276
0.00102029
0.0010179
0.0010156
0.00101337
0.00101122
0.00100914
0.00100713
0.00100519
0.00100332
0.00100151
0.000999754
0.000998062
0.000996426
0.000994844
0.000993316
0.000991838
0.00099041
0.00098903
0.000987696
0.000986407
0.00098516
0.000983956
0.000982792
0.000981668
0.000980581
0.000979532
0.000978518
0.000977538
0.000976592
0.000975678
0.000974796
0.000973944
0.000973121
0.000972327
0.000971561
0.000970822
0.000970109
0.000969421
0.000968757
0.000968117
0.0009675
0.000966905
0.000966332
0.000965779
0.000965247
0.000964734
0.00096424
0.000963764
0.000963306
0.000962865
0.000962441
0.000962032
0.00096164
0.000961262
0.000960898
0.000960548
0.000960212
0.000959889
0.000959578
0.000959279
0.000958992
0.000958716
0.000958451
0.000958197
0.000957952
0.000957717
0.000957491
0.000957274
0.000957066
0.000956866
0.000956674
0.000956489
0.000956312
0.000956142
0.000955979
0.000955822
0.000955671
0.000955526
0.000955388
0.000955254
0.000955126
0.000955003
0.000954885
0.000954771
0.000954662
0.000954557
0.000954457
0.00095436
0.000954267
0.000954178
0.000954092
0.00095401
0.000953931
0.0121564
0.00690878
0.00501951
0.0040701
0.00350441
0.00312637
0.00285145
0.00263886
0.00246723
0.00232445
0.00220312
0.00209837
0.0020068
0.00192594
0.00185393
0.00178934
0.00173104
0.00167815
0.00162991
0.00158575
0.00154516
0.00150772
0.00147309
0.00144096
0.00141108
0.00138322
0.0013572
0.00133283
0.00130998
0.00128852
0.00126832
0.00124928
0.00123132
0.00121435
0.0011983
0.0011831
0.00116869
0.00115501
0.00114202
0.00112966
0.00111791
0.00110672
0.00109605
0.00108588
0.00107617
0.00106689
0.00105803
0.00104956
0.00104146
0.0010337
0.00102628
0.00101916
0.00101234
0.0010058
0.00099952
0.000993497
0.000987714
0.00098216
0.000976823
0.000971694
0.000966762
0.00096202
0.000957457
0.000953066
0.000948839
0.00094477
0.000940851
0.000937075
0.000933438
0.000929932
0.000926552
0.000923294
0.000920152
0.000917121
0.000914198
0.000911377
0.000908654
0.000906027
0.000903491
0.000901042
0.000898678
0.000896395
0.00089419
0.00089206
0.000890002
0.000888015
0.000886095
0.000884239
0.000882447
0.000880714
0.00087904
0.000877423
0.00087586
0.000874349
0.000872889
0.000871478
0.000870115
0.000868798
0.000867525
0.000866296
0.000865108
0.00086396
0.000862851
0.000861781
0.000860747
0.000859748
0.000858784
0.000857854
0.000856956
0.000856089
0.000855253
0.000854446
0.000853668
0.000852917
0.000852194
0.000851497
0.000850825
0.000850177
0.000849554
0.000848953
0.000848375
0.000847818
0.000847283
0.000846768
0.000846272
0.000845796
0.000845338
0.000844898
0.000844476
0.00084407
0.00084368
0.000843306
0.000842947
0.000842603
0.000842273
0.000841956
0.000841653
0.000841362
0.000841083
0.000840817
0.000840561
0.000840317
0.000840083
0.000839859
0.000839645
0.00083944
0.000839244
0.000839057
0.000838878
0.000838707
0.000838544
0.000838388
0.000838239
0.000838096
0.00083796
0.000837831
0.000837707
0.000837589
0.000837476
0.000837368
0.000837265
0.000837167
0.000837073
0.000836984
0.000836899
0.000836818
0.00083674
0.000836666
0.000836595
0.000836528
0.000836464
0.000836403
0.000836344
0.000836289
0.000836236
0.010268
0.00553275
0.00401405
0.00328521
0.00286018
0.00257739
0.00237018
0.00220778
0.0020748
0.00196274
0.00186648
0.00178259
0.00170867
0.00164294
0.00158405
0.00153094
0.00148278
0.00143889
0.00139871
0.00136179
0.00132774
0.00129625
0.00126703
0.00123986
0.00121453
0.00119086
0.0011687
0.00114792
0.00112839
0.00111002
0.0010927
0.00107636
0.00106092
0.00104631
0.00103247
0.00101935
0.0010069
0.00099507
0.000983822
0.000973119
0.000962925
0.000953209
0.000943942
0.000935097
0.00092665
0.000918578
0.000910859
0.000903475
0.000896406
0.000889637
0.000883151
0.000876933
0.00087097
0.000865249
0.000859758
0.000854486
0.000849422
0.000844556
0.000839879
0.000835382
0.000831057
0.000826897
0.000822892
0.000819038
0.000815326
0.000811752
0.000808309
0.000804991
0.000801793
0.000798711
0.000795739
0.000792873
0.000790108
0.000787441
0.000784868
0.000782385
0.000779988
0.000777674
0.00077544
0.000773284
0.000771201
0.000769189
0.000767247
0.00076537
0.000763557
0.000761805
0.000760113
0.000758478
0.000756898
0.000755372
0.000753897
0.000752472
0.000751095
0.000749764
0.000748479
0.000747237
0.000746037
0.000744878
0.000743759
0.000742678
0.000741634
0.000740626
0.000739652
0.000738713
0.000737807
0.000736932
0.000736088
0.000735274
0.000734489
0.000733733
0.000733004
0.000732301
0.000731624
0.000730972
0.000730345
0.000729741
0.00072916
0.000728601
0.000728063
0.000727547
0.00072705
0.000726574
0.000726116
0.000725677
0.000725255
0.000724851
0.000724464
0.000724093
0.000723737
0.000723397
0.000723072
0.00072276
0.000722463
0.000722178
0.000721906
0.000721647
0.0007214
0.000721164
0.000720939
0.000720724
0.00072052
0.000720326
0.000720141
0.000719965
0.000719798
0.000719639
0.000719488
0.000719345
0.000719209
0.00071908
0.000718958
0.000718843
0.000718733
0.00071863
0.000718532
0.000718439
0.000718352
0.000718269
0.000718191
0.000718117
0.000718048
0.000717982
0.00071792
0.000717862
0.000717807
0.000717756
0.000717707
0.000717662
0.000717619
0.000717578
0.000717541
0.000717505
0.000717472
0.000717441
0.000717412
0.00844802
0.00434928
0.00316324
0.00261819
0.0023068
0.00209984
0.00194626
0.00182381
0.00172189
0.00163484
0.00155922
0.00149271
0.00143364
0.00138075
0.00133308
0.00128986
0.00125047
0.00121442
0.00118129
0.00115074
0.00112247
0.00109625
0.00107185
0.00104911
0.00102785
0.00100794
0.000989272
0.000971726
0.000955211
0.000939645
0.000924953
0.000911067
0.000897928
0.000885482
0.000873679
0.000862476
0.000851831
0.000841709
0.000832075
0.000822898
0.000814151
0.000805808
0.000797844
0.000790238
0.000782968
0.000776017
0.000769366
0.000762999
0.000756902
0.000751059
0.000745458
0.000740086
0.000734933
0.000729986
0.000725236
0.000720674
0.00071629
0.000712076
0.000708025
0.000704128
0.000700379
0.000696772
0.000693299
0.000689955
0.000686735
0.000683632
0.000680643
0.000677762
0.000674985
0.000672307
0.000669725
0.000667235
0.000664832
0.000662514
0.000660277
0.000658118
0.000656034
0.000654021
0.000652079
0.000650202
0.000648391
0.000646641
0.00064495
0.000643317
0.00064174
0.000640216
0.000638744
0.000637321
0.000635947
0.000634619
0.000633336
0.000632096
0.000630898
0.000629742
0.000628624
0.000627545
0.000626502
0.000625496
0.000624524
0.000623585
0.000622679
0.000621805
0.000620962
0.000620149
0.000619364
0.000618607
0.000617878
0.000617175
0.000616498
0.000615846
0.000615219
0.000614615
0.000614033
0.000613474
0.000612937
0.000612421
0.000611925
0.000611448
0.000610991
0.000610553
0.000610132
0.000609729
0.000609343
0.000608974
0.000608621
0.000608283
0.00060796
0.000607651
0.000607357
0.000607076
0.000606808
0.000606553
0.000606311
0.00060608
0.00060586
0.000605652
0.000605454
0.000605266
0.000605089
0.00060492
0.000604761
0.000604611
0.000604469
0.000604335
0.000604209
0.00060409
0.000603979
0.000603874
0.000603775
0.000603683
0.000603597
0.000603516
0.000603441
0.000603371
0.000603306
0.000603245
0.000603189
0.000603137
0.000603089
0.000603045
0.000603004
0.000602967
0.000602932
0.000602901
0.000602873
0.000602847
0.000602823
0.000602802
0.000602783
0.000602767
0.000602752
0.000602739
0.000602728
0.000602718
0.00060271
0.00677954
0.00336686
0.00246418
0.00206611
0.00184296
0.00169396
0.00158128
0.00148953
0.00141184
0.00134458
0.00128553
0.00123313
0.00118623
0.00114397
0.00110565
0.00107073
0.00103876
0.00100938
0.00098227
0.000957186
0.000933906
0.000912246
0.000892043
0.000873159
0.000855473
0.000838877
0.000823279
0.000808595
0.000794752
0.000781684
0.000769331
0.000757641
0.000746565
0.000736062
0.00072609
0.000716616
0.000707605
0.000699029
0.00069086
0.000683072
0.000675644
0.000668554
0.000661781
0.000655309
0.00064912
0.000643199
0.000637531
0.000632103
0.000626901
0.000621915
0.000617134
0.000612547
0.000608144
0.000603917
0.000599857
0.000595956
0.000592206
0.000588602
0.000585135
0.0005818
0.000578591
0.000575502
0.000572528
0.000569664
0.000566906
0.000564248
0.000561686
0.000559217
0.000556837
0.000554542
0.000552329
0.000550193
0.000548133
0.000546145
0.000544227
0.000542375
0.000540588
0.000538862
0.000537195
0.000535586
0.000534032
0.000532531
0.000531081
0.00052968
0.000528327
0.00052702
0.000525757
0.000524537
0.000523359
0.00052222
0.00052112
0.000520057
0.000519031
0.00051804
0.000517082
0.000516158
0.000515265
0.000514404
0.000513572
0.00051277
0.000511995
0.000511248
0.000510528
0.000509834
0.000509164
0.00050852
0.000507899
0.000507301
0.000506725
0.000506171
0.000505639
0.000505127
0.000504635
0.000504162
0.000503708
0.000503273
0.000502856
0.000502456
0.000502072
0.000501705
0.000501354
0.000501019
0.000500698
0.000500392
0.0005001
0.000499821
0.000499556
0.000499303
0.000499063
0.000498835
0.000498618
0.000498412
0.000498218
0.000498034
0.00049786
0.000497695
0.00049754
0.000497394
0.000497257
0.000497128
0.000497007
0.000496894
0.000496788
0.000496689
0.000496598
0.000496512
0.000496433
0.00049636
0.000496293
0.000496231
0.000496174
0.000496123
0.000496075
0.000496033
0.000495994
0.00049596
0.000495929
0.000495902
0.000495879
0.000495858
0.000495841
0.000495826
0.000495814
0.000495805
0.000495798
0.000495793
0.00049579
0.000495789
0.00049579
0.000495792
0.000495796
0.000495801
0.000495808
0.000495816
0.000495825
0.00531312
0.00257177
0.00190079
0.00161658
0.00145977
0.00135369
0.00127134
0.0012027
0.00114357
0.00109174
0.00104578
0.00100467
0.000967618
0.00093402
0.000903392
0.000875344
0.000849556
0.00082576
0.000803732
0.000783283
0.000764251
0.000746495
0.000729893
0.000714342
0.000699747
0.000686026
0.000673109
0.000660929
0.00064943
0.00063856
0.000628273
0.000618527
0.000609284
0.000600509
0.000592172
0.000584243
0.000576698
0.000569511
0.000562661
0.000556128
0.000549892
0.000543937
0.000538247
0.000532807
0.000527603
0.000522623
0.000517853
0.000513285
0.000508906
0.000504708
0.000500681
0.000496817
0.000493107
0.000489545
0.000486124
0.000482836
0.000479676
0.000476637
0.000473714
0.000470903
0.000468197
0.000465593
0.000463085
0.00046067
0.000458344
0.000456103
0.000453943
0.000451861
0.000449854
0.000447918
0.000446052
0.000444251
0.000442514
0.000440838
0.000439221
0.00043766
0.000436153
0.000434698
0.000433293
0.000431936
0.000430626
0.000429361
0.000428139
0.000426959
0.000425819
0.000424718
0.000423654
0.000422627
0.000421634
0.000420675
0.000419749
0.000418855
0.000417991
0.000417157
0.000416352
0.000415575
0.000414825
0.000414101
0.000413402
0.000412729
0.000412079
0.000411452
0.000410848
0.000410267
0.000409706
0.000409167
0.000408647
0.000408148
0.000407667
0.000407206
0.000406762
0.000406336
0.000405927
0.000405535
0.000405158
0.000404798
0.000404453
0.000404123
0.000403807
0.000403506
0.000403218
0.000402943
0.000402681
0.000402432
0.000402194
0.000401969
0.000401755
0.000401552
0.000401359
0.000401177
0.000401005
0.000400842
0.000400689
0.000400545
0.00040041
0.000400283
0.000400164
0.000400053
0.00039995
0.000399853
0.000399764
0.000399682
0.000399606
0.000399536
0.000399472
0.000399413
0.00039936
0.000399313
0.00039927
0.000399232
0.000399198
0.000399169
0.000399143
0.000399122
0.000399104
0.00039909
0.000399079
0.000399071
0.000399066
0.000399064
0.000399064
0.000399067
0.000399072
0.000399079
0.000399088
0.000399099
0.000399112
0.000399126
0.000399141
0.000399158
0.000399176
0.000399195
0.000399215
0.000399236
0.000399258
0.00406978
0.00193996
0.00145242
0.00125409
0.00114577
0.00107065
0.00101039
0.000958944
0.000913938
0.000874058
0.000838392
0.00080625
0.000777102
0.000750525
0.00072618
0.000703789
0.000683122
0.000663986
0.000646217
0.000629675
0.00061424
0.000599807
0.000586286
0.000573595
0.000561665
0.000550434
0.000539845
0.000529848
0.0005204
0.00051146
0.000502992
0.000494962
0.000487342
0.000480103
0.000473221
0.000466674
0.00046044
0.0004545
0.000448837
0.000443434
0.000438276
0.00043335
0.000428641
0.000424139
0.000419833
0.00041571
0.000411763
0.000407982
0.000404358
0.000400883
0.00039755
0.000394353
0.000391283
0.000388336
0.000385506
0.000382786
0.000380172
0.000377659
0.000375242
0.000372918
0.000370681
0.000368529
0.000366457
0.000364462
0.00036254
0.000360689
0.000358905
0.000357186
0.00035553
0.000353932
0.000352392
0.000350907
0.000349474
0.000348092
0.000346758
0.000345471
0.000344229
0.00034303
0.000341872
0.000340755
0.000339676
0.000338634
0.000337628
0.000336657
0.000335719
0.000334812
0.000333937
0.000333092
0.000332276
0.000331488
0.000330727
0.000329992
0.000329283
0.000328598
0.000327937
0.0003273
0.000326684
0.000326091
0.000325518
0.000324966
0.000324434
0.000323922
0.000323428
0.000322952
0.000322494
0.000322054
0.00032163
0.000321223
0.000320832
0.000320456
0.000320095
0.000319749
0.000319417
0.0003191
0.000318795
0.000318504
0.000318226
0.00031796
0.000317706
0.000317464
0.000317233
0.000317014
0.000316805
0.000316607
0.000316419
0.00031624
0.000316072
0.000315912
0.000315762
0.00031562
0.000315486
0.000315361
0.000315244
0.000315134
0.000315032
0.000314936
0.000314848
0.000314766
0.00031469
0.000314621
0.000314557
0.000314499
0.000314447
0.0003144
0.000314357
0.00031432
0.000314287
0.000314259
0.000314235
0.000314215
0.000314198
0.000314186
0.000314176
0.000314171
0.000314168
0.000314168
0.000314171
0.000314177
0.000314185
0.000314195
0.000314208
0.000314223
0.000314239
0.000314258
0.000314278
0.000314299
0.000314322
0.000314346
0.000314372
0.000314398
0.000314426
0.000314454
0.000314484
0.000314514
0.000314544
0.00304752
0.00144457
0.00109844
0.000963332
0.000889534
0.000836283
0.000791959
0.0007533
0.000719052
0.000688435
0.000660855
0.000635847
0.000613045
0.000592156
0.000572942
0.000555206
0.000538781
0.00052353
0.000509332
0.000496084
0.000483699
0.000472097
0.000461211
0.00045098
0.000441351
0.000432277
0.000423714
0.000415624
0.000407973
0.00040073
0.000393866
0.000387355
0.000381175
0.000375303
0.000369721
0.000364409
0.000359351
0.000354533
0.000349939
0.000345557
0.000341375
0.000337381
0.000333565
0.000329918
0.000326429
0.000323091
0.000319896
0.000316836
0.000313905
0.000311095
0.000308401
0.000305818
0.000303339
0.00030096
0.000298676
0.000296482
0.000294375
0.00029235
0.000290403
0.000288532
0.000286732
0.000285
0.000283334
0.00028173
0.000280186
0.000278699
0.000277267
0.000275888
0.000274559
0.000273278
0.000272044
0.000270854
0.000269706
0.000268599
0.000267532
0.000266502
0.000265509
0.000264551
0.000263626
0.000262733
0.000261871
0.00026104
0.000260237
0.000259462
0.000258714
0.000257991
0.000257294
0.000256621
0.000255971
0.000255343
0.000254738
0.000254153
0.000253589
0.000253045
0.00025252
0.000252014
0.000251525
0.000251054
0.0002506
0.000250163
0.000249741
0.000249335
0.000248944
0.000248568
0.000248206
0.000247858
0.000247524
0.000247203
0.000246895
0.000246599
0.000246315
0.000246044
0.000245783
0.000245534
0.000245296
0.000245069
0.000244851
0.000244644
0.000244447
0.000244259
0.00024408
0.000243911
0.00024375
0.000243597
0.000243453
0.000243317
0.000243188
0.000243067
0.000242954
0.000242847
0.000242747
0.000242654
0.000242567
0.000242486
0.000242412
0.000242343
0.000242279
0.000242221
0.000242169
0.000242121
0.000242078
0.00024204
0.000242006
0.000241976
0.000241951
0.000241929
0.000241912
0.000241898
0.000241887
0.00024188
0.000241876
0.000241874
0.000241876
0.000241881
0.000241888
0.000241897
0.000241909
0.000241924
0.00024194
0.000241958
0.000241978
0.000242
0.000242023
0.000242048
0.000242075
0.000242102
0.000242131
0.000242161
0.000242192
0.000242224
0.000242257
0.00024229
0.000242324
0.000242359
0.000242394
0.00222904
0.00105994
0.000820374
0.000730681
0.000680821
0.000642814
0.000610024
0.00058095
0.000554962
0.000531573
0.000510384
0.000491075
0.000473394
0.000457135
0.000442131
0.000428241
0.000415346
0.000403348
0.000392157
0.000381701
0.000371911
0.000362732
0.000354112
0.000346005
0.000338371
0.000331174
0.000324381
0.000317963
0.000311894
0.000306148
0.000300705
0.000295543
0.000290645
0.000285994
0.000281573
0.00027737
0.00027337
0.000269561
0.000265933
0.000262474
0.000259176
0.000256028
0.000253023
0.000250152
0.000247409
0.000244787
0.000242279
0.000239879
0.000237581
0.000235381
0.000233274
0.000231254
0.000229318
0.000227461
0.00022568
0.00022397
0.00022233
0.000220754
0.000219241
0.000217787
0.00021639
0.000215047
0.000213756
0.000212514
0.000211319
0.000210169
0.000209063
0.000207998
0.000206972
0.000205984
0.000205033
0.000204116
0.000203233
0.000202381
0.000201561
0.00020077
0.000200007
0.000199271
0.000198562
0.000197877
0.000197217
0.00019658
0.000195966
0.000195373
0.000194801
0.000194249
0.000193716
0.000193202
0.000192706
0.000192228
0.000191766
0.000191321
0.000190891
0.000190477
0.000190078
0.000189692
0.000189321
0.000188964
0.000188619
0.000188287
0.000187968
0.00018766
0.000187364
0.00018708
0.000186806
0.000186543
0.000186291
0.000186049
0.000185817
0.000185594
0.000185381
0.000185177
0.000184982
0.000184795
0.000184617
0.000184447
0.000184285
0.000184131
0.000183984
0.000183845
0.000183713
0.000183588
0.00018347
0.000183358
0.000183252
0.000183153
0.00018306
0.000182972
0.00018289
0.000182814
0.000182743
0.000182677
0.000182616
0.00018256
0.000182509
0.000182462
0.000182419
0.000182381
0.000182346
0.000182316
0.000182289
0.000182266
0.000182246
0.00018223
0.000182217
0.000182207
0.000182201
0.000182197
0.000182195
0.000182197
0.000182201
0.000182207
0.000182215
0.000182226
0.000182239
0.000182254
0.000182271
0.000182289
0.00018231
0.000182331
0.000182355
0.00018238
0.000182406
0.000182433
0.000182462
0.000182491
0.000182522
0.000182554
0.000182586
0.00018262
0.000182654
0.000182688
0.000182724
0.00018276
0.000182796
0.00158866
0.000763558
0.000602603
0.000544692
0.000511027
0.000483639
0.000459329
0.000437562
0.000418001
0.000400315
0.000384226
0.000369513
0.000355999
0.000343539
0.000332016
0.000321329
0.000311394
0.000302138
0.000293499
0.000285421
0.000277857
0.000270763
0.000264102
0.000257838
0.000251943
0.000246388
0.000241148
0.000236202
0.000231528
0.000227108
0.000222924
0.000218962
0.000215206
0.000211644
0.000208263
0.000205053
0.000202001
0.0001991
0.00019634
0.000193712
0.00019121
0.000188825
0.000186552
0.000184384
0.000182314
0.000180339
0.000178452
0.00017665
0.000174926
0.000173278
0.000171702
0.000170193
0.000168748
0.000167365
0.000166039
0.000164769
0.000163551
0.000162383
0.000161262
0.000160187
0.000159155
0.000158164
0.000157212
0.000156297
0.000155419
0.000154574
0.000153762
0.000152981
0.000152229
0.000151506
0.000150811
0.000150141
0.000149496
0.000148876
0.000148278
0.000147702
0.000147147
0.000146612
0.000146097
0.0001456
0.000145122
0.00014466
0.000144215
0.000143786
0.000143372
0.000142974
0.000142589
0.000142218
0.00014186
0.000141516
0.000141183
0.000140863
0.000140554
0.000140256
0.000139969
0.000139693
0.000139427
0.00013917
0.000138924
0.000138686
0.000138458
0.000138238
0.000138027
0.000137824
0.000137629
0.000137442
0.000137262
0.00013709
0.000136925
0.000136767
0.000136616
0.000136472
0.000136334
0.000136203
0.000136078
0.000135958
0.000135845
0.000135737
0.000135635
0.000135538
0.000135446
0.00013536
0.000135278
0.000135201
0.000135129
0.000135061
0.000134998
0.000134939
0.000134884
0.000134833
0.000134787
0.000134743
0.000134704
0.000134668
0.000134635
0.000134606
0.00013458
0.000134557
0.000134538
0.000134521
0.000134506
0.000134495
0.000134486
0.000134479
0.000134475
0.000134474
0.000134474
0.000134477
0.000134482
0.000134488
0.000134497
0.000134507
0.000134519
0.000134533
0.000134549
0.000134566
0.000134584
0.000134604
0.000134625
0.000134647
0.000134671
0.000134695
0.000134721
0.000134748
0.000134775
0.000134804
0.000134833
0.000134864
0.000134895
0.000134926
0.000134959
0.000134992
0.000135025
0.000135059
0.000135094
0.00109785
0.000536648
0.000432458
0.000396115
0.000373217
0.000353371
0.000335476
0.000319404
0.000304926
0.000291804
0.000279839
0.000268876
0.000258789
0.000249479
0.000240861
0.000232865
0.000225431
0.000218506
0.000212046
0.000206009
0.000200362
0.000195071
0.000190109
0.000185451
0.000181073
0.000176955
0.000173078
0.000169425
0.00016598
0.000162728
0.000159658
0.000156755
0.000154011
0.000151413
0.000148953
0.000146622
0.000144412
0.000142315
0.000140325
0.000138434
0.000136638
0.00013493
0.000133305
0.000131759
0.000130286
0.000128883
0.000127546
0.000126271
0.000125055
0.000123894
0.000122786
0.000121727
0.000120715
0.000119748
0.000118823
0.000117938
0.000117091
0.00011628
0.000115504
0.000114759
0.000114046
0.000113363
0.000112707
0.000112078
0.000111474
0.000110895
0.000110339
0.000109804
0.000109291
0.000108798
0.000108324
0.000107868
0.00010743
0.000107008
0.000106603
0.000106212
0.000105837
0.000105475
0.000105127
0.000104792
0.000104469
0.000104158
0.000103859
0.00010357
0.000103293
0.000103025
0.000102767
0.000102518
0.000102279
0.000102048
0.000101826
0.000101612
0.000101406
0.000101207
0.000101016
0.000100832
0.000100655
0.000100485
0.000100321
0.000100164
0.000100012
9.98669e-05
9.97273e-05
9.95932e-05
9.94646e-05
9.93413e-05
9.92231e-05
9.911e-05
9.90018e-05
9.88984e-05
9.87996e-05
9.87054e-05
9.86156e-05
9.85302e-05
9.84489e-05
9.83717e-05
9.82985e-05
9.82292e-05
9.81636e-05
9.81017e-05
9.80434e-05
9.79885e-05
9.7937e-05
9.78888e-05
9.78438e-05
9.78019e-05
9.7763e-05
9.77271e-05
9.76939e-05
9.76635e-05
9.76358e-05
9.76107e-05
9.75881e-05
9.75679e-05
9.75501e-05
9.75346e-05
9.75213e-05
9.75101e-05
9.7501e-05
9.74938e-05
9.74886e-05
9.74853e-05
9.74838e-05
9.7484e-05
9.74859e-05
9.74894e-05
9.74945e-05
9.7501e-05
9.7509e-05
9.75184e-05
9.75292e-05
9.75412e-05
9.75544e-05
9.75688e-05
9.75844e-05
9.76011e-05
9.76187e-05
9.76374e-05
9.76571e-05
9.76777e-05
9.76991e-05
9.77214e-05
9.77445e-05
9.77684e-05
9.7793e-05
9.78183e-05
9.78443e-05
9.78709e-05
9.78982e-05
9.7926e-05
9.79545e-05
9.79834e-05
9.80129e-05
9.80429e-05
9.80733e-05
0.000728934
0.000364113
0.000299932
0.000277722
0.00026201
0.000247762
0.000234895
0.000223365
0.000212982
0.000203569
0.000194982
0.000187114
0.000179877
0.000173201
0.000167028
0.000161308
0.000155999
0.000151063
0.000146467
0.000142183
0.000138186
0.000134451
0.000130959
0.00012769
0.000124627
0.000121756
0.000119061
0.00011653
0.000114152
0.000111915
0.000109809
0.000107826
0.000105957
0.000104193
0.000102529
0.000100958
9.94726e-05
9.80682e-05
9.67394e-05
9.54813e-05
9.42895e-05
9.31598e-05
9.20884e-05
9.10717e-05
9.01064e-05
8.91893e-05
8.83177e-05
8.74888e-05
8.67001e-05
8.59494e-05
8.52344e-05
8.45531e-05
8.39036e-05
8.32841e-05
8.26931e-05
8.21289e-05
8.159e-05
8.10753e-05
8.05832e-05
8.01128e-05
7.96628e-05
7.92321e-05
7.88199e-05
7.84252e-05
7.8047e-05