/*--------------------------------*- C++ -*----------------------------------*\
| =========                 |                                                 |
| \\      /  F ield         | OpenFOAM: The Open Source CFD Toolbox           |
|  \\    /   O peration     | Version:  2.1.1                                 |
|   \\  /    A nd           | Web:      www.OpenFOAM.org                      |
|    \\/     M anipulation  |                                                 |
\*---------------------------------------------------------------------------*/
FoamFile
{
    version     2.0;
    format      ascii;
    class       volScalarField;
    location    "4800";
    object      p_rgh;
}
// * * * * * * * * * * * * * * * * * * * * * * * * * * * * * * * * * * * * * //

dimensions      [0 2 -2 0 0 0 0];

internalField   nonuniform List<scalar> 
54800
(
384.442
383.316
382.458
381.542
380.754
380.001
379.285
378.607
377.961
377.344
376.754
376.189
375.648
375.129
374.631
374.152
373.691
373.248
372.822
372.412
372.017
371.636
371.268
370.914
370.573
370.243
369.925
369.618
369.322
369.036
368.759
368.492
368.234
367.984
367.743
367.51
367.284
367.066
366.855
366.651
366.454
366.263
366.078
365.899
365.726
365.559
365.397
365.24
365.088
364.941
364.798
364.66
364.527
364.397
364.272
364.151
364.033
363.919
363.809
363.702
363.599
363.499
363.401
363.307
363.216
363.128
363.042
362.959
362.879
362.801
362.726
362.653
362.583
362.515
362.449
362.385
362.323
362.264
362.207
362.152
362.099
362.048
361.999
361.953
361.908
361.866
361.826
361.789
361.753
361.72
361.69
361.662
361.636
361.614
361.593
361.576
361.561
361.549
361.54
361.534
361.531
361.531
361.534
361.541
361.55
361.563
361.578
361.597
361.619
361.644
361.672
361.704
361.738
361.775
361.815
361.858
361.904
361.952
362.003
362.057
362.113
362.171
362.231
362.293
362.357
362.423
362.491
362.56
362.63
362.702
362.775
362.849
362.925
363
363.077
363.154
363.232
363.31
363.388
363.467
363.545
363.624
363.702
363.781
363.859
363.936
364.013
364.09
364.166
364.242
364.317
364.391
364.465
364.537
364.609
364.68
364.75
364.819
364.887
364.954
365.02
365.086
365.15
365.213
365.274
365.335
365.395
365.454
365.511
365.567
365.623
365.677
365.73
365.782
365.833
384.515
383.326
382.481
381.557
380.766
380.01
379.293
378.613
377.966
377.348
376.758
376.193
375.652
375.132
374.633
374.154
373.694
373.251
372.824
372.414
372.018
371.637
371.27
370.916
370.574
370.245
369.927
369.62
369.323
369.037
368.76
368.493
368.235
367.985
367.744
367.51
367.285
367.067
366.856
366.652
366.454
366.263
366.079
365.9
365.727
365.559
365.397
365.24
365.088
364.941
364.799
364.661
364.527
364.398
364.272
364.151
364.034
363.92
363.809
363.703
363.599
363.499
363.402
363.308
363.216
363.128
363.042
362.96
362.879
362.801
362.726
362.653
362.583
362.514
362.448
362.384
362.322
362.263
362.205
362.15
362.096
362.045
361.995
361.948
361.903
361.859
361.818
361.779
361.742
361.707
361.675
361.644
361.616
361.59
361.567
361.546
361.527
361.511
361.498
361.487
361.478
361.473
361.47
361.469
361.472
361.477
361.485
361.496
361.509
361.526
361.545
361.567
361.591
361.618
361.648
361.68
361.715
361.753
361.792
361.834
361.878
361.925
361.973
362.023
362.076
362.13
362.185
362.242
362.301
362.361
362.422
362.485
362.548
362.612
362.677
362.743
362.81
362.877
362.944
363.012
363.08
363.148
363.216
363.285
363.353
363.421
363.488
363.556
363.623
363.69
363.756
363.822
363.887
363.952
364.016
364.079
364.141
364.203
364.264
364.324
364.384
364.442
364.5
364.557
364.612
364.667
364.721
364.774
364.826
364.877
364.928
364.977
365.025
365.072
365.118
384.636
383.339
382.515
381.579
380.784
380.024
379.304
378.623
377.974
377.355
376.764
376.199
375.656
375.137
374.638
374.158
373.697
373.254
372.827
372.417
372.021
371.64
371.273
370.918
370.576
370.247
369.929
369.621
369.325
369.038
368.762
368.494
368.236
367.986
367.745
367.512
367.286
367.068
366.857
366.653
366.455
366.264
366.08
365.901
365.728
365.56
365.398
365.241
365.089
364.942
364.799
364.661
364.528
364.398
364.273
364.152
364.034
363.92
363.81
363.703
363.599
363.499
363.402
363.308
363.217
363.128
363.043
362.96
362.879
362.801
362.726
362.653
362.582
362.514
362.447
362.383
362.321
362.261
362.203
362.147
362.092
362.04
361.99
361.941
361.895
361.85
361.807
361.766
361.726
361.689
361.653
361.62
361.588
361.558
361.53
361.504
361.48
361.457
361.437
361.419
361.403
361.389
361.378
361.368
361.36
361.355
361.352
361.351
361.352
361.355
361.361
361.368
361.378
361.39
361.404
361.421
361.439
361.46
361.482
361.506
361.533
361.561
361.591
361.623
361.657
361.692
361.729
361.767
361.807
361.848
361.89
361.934
361.979
362.025
362.071
362.119
362.168
362.217
362.267
362.317
362.368
362.419
362.471
362.523
362.576
362.628
362.68
362.733
362.785
362.838
362.89
362.942
362.994
363.045
363.096
363.147
363.198
363.247
363.297
363.346
363.394
363.442
363.489
363.535
363.581
363.627
363.671
363.715
363.758
363.801
363.842
363.884
363.924
363.963
364.002
384.788
383.35
382.552
381.601
380.802
380.038
379.315
378.632
377.982
377.363
376.771
376.204
375.662
375.141
374.642
374.162
373.701
373.258
372.831
372.42
372.024
371.643
371.275
370.921
370.579
370.249
369.931
369.623
369.327
369.04
368.763
368.496
368.238
367.988
367.746
367.513
367.287
367.069
366.858
366.654
366.456
366.265
366.081
365.902
365.728
365.561
365.399
365.242
365.09
364.942
364.8
364.662
364.528
364.399
364.274
364.152
364.035
363.921
363.81
363.703
363.6
363.5
363.402
363.308
363.217
363.128
363.043
362.96
362.879
362.801
362.726
362.653
362.582
362.513
362.446
362.382
362.319
362.259
362.2
362.143
362.089
362.035
361.984
361.934
361.886
361.84
361.795
361.752
361.71
361.67
361.631
361.594
361.558
361.524
361.491
361.459
361.43
361.401
361.374
361.348
361.324
361.301
361.28
361.26
361.242
361.225
361.209
361.195
361.183
361.172
361.162
361.154
361.148
361.143
361.14
361.138
361.137
361.139
361.141
361.146
361.152
361.159
361.168
361.178
361.19
361.203
361.218
361.234
361.251
361.27
361.29
361.311
361.333
361.357
361.381
361.407
361.434
361.461
361.49
361.519
361.549
361.58
361.612
361.644
361.677
361.71
361.743
361.777
361.812
361.846
361.881
361.916
361.951
361.987
362.022
362.057
362.092
362.128
362.163
362.197
362.232
362.267
362.301
362.335
362.368
362.402
362.435
362.467
362.5
362.531
362.563
362.594
362.624
362.654
362.684
384.957
383.355
382.585
381.621
380.818
380.05
379.325
378.64
377.989
377.369
376.776
376.209
375.666
375.146
374.646
374.166
373.705
373.261
372.834
372.423
372.027
371.645
371.277
370.923
370.581
370.251
369.933
369.625
369.328
369.042
368.765
368.497
368.239
367.989
367.748
367.514
367.289
367.07
366.859
366.655
366.457
366.266
366.081
365.902
365.729
365.562
365.399
365.242
365.09
364.943
364.8
364.662
364.529
364.399
364.274
364.153
364.035
363.921
363.811
363.704
363.6
363.5
363.403
363.308
363.217
363.129
363.043
362.96
362.879
362.801
362.726
362.652
362.581
362.512
362.445
362.381
362.318
362.257
362.198
362.141
362.085
362.031
361.979
361.928
361.878
361.831
361.784
361.739
361.695
361.652
361.611
361.57
361.531
361.493
361.455
361.419
361.384
361.349
361.316
361.283
361.252
361.221
361.19
361.161
361.132
361.105
361.077
361.051
361.026
361.001
360.977
360.954
360.932
360.91
360.89
360.87
360.851
360.833
360.817
360.801
360.786
360.772
360.759
360.747
360.737
360.727
360.719
360.711
360.705
360.7
360.696
360.694
360.692
360.692
360.693
360.695
360.698
360.702
360.707
360.713
360.721
360.729
360.738
360.748
360.759
360.771
360.784
360.797
360.811
360.826
360.841
360.857
360.874
360.891
360.908
360.926
360.945
360.963
360.982
361.001
361.021
361.04
361.06
361.08
361.1
361.12
361.14
361.16
361.18
361.2
361.22
361.239
361.259
361.279
361.298
385.133
383.353
382.611
381.636
380.829
380.058
379.332
378.646
377.995
377.374
376.781
376.213
375.67
375.149
374.649
374.169
373.707
373.264
372.836
372.425
372.029
371.647
371.28
370.925
370.583
370.253
369.934
369.627
369.33
369.043
368.766
368.499
368.24
367.99
367.749
367.515
367.29
367.071
366.86
366.656
366.458
366.267
366.082
365.903
365.73
365.562
365.4
365.243
365.091
364.944
364.801
364.663
364.529
364.4
364.274
364.153
364.035
363.921
363.811
363.704
363.6
363.5
363.403
363.308
363.217
363.129
363.043
362.96
362.879
362.801
362.725
362.652
362.581
362.512
362.445
362.38
362.317
362.255
362.196
362.138
362.082
362.027
361.974
361.922
361.872
361.823
361.775
361.728
361.682
361.637
361.593
361.55
361.508
361.466
361.425
361.385
361.345
361.306
361.267
361.228
361.19
361.152
361.114
361.076
361.039
361.001
360.964
360.927
360.89
360.853
360.817
360.78
360.744
360.707
360.671
360.635
360.6
360.564
360.529
360.495
360.46
360.427
360.393
360.361
360.329
360.297
360.267
360.237
360.208
360.179
360.152
360.126
360.1
360.076
360.053
360.031
360.01
359.99
359.971
359.954
359.937
359.922
359.908
359.895
359.884
359.873
359.864
359.855
359.848
359.842
359.837
359.832
359.829
359.827
359.825
359.825
359.825
359.826
359.828
359.83
359.833
359.837
359.841
359.846
359.851
359.857
359.863
359.87
359.877
359.884
359.891
359.899
359.907
359.916
359.924
385.307
383.344
382.631
381.646
380.837
380.064
379.336
378.65
377.998
377.377
376.784
376.216
375.673
375.152
374.652
374.171
373.71
373.266
372.838
372.427
372.031
371.649
371.281
370.926
370.584
370.254
369.936
369.628
369.331
369.044
368.767
368.5
368.241
367.991
367.75
367.516
367.29
367.072
366.861
366.656
366.459
366.268
366.083
365.904
365.73
365.563
365.4
365.243
365.091
364.944
364.801
364.663
364.529
364.4
364.275
364.153
364.035
363.921
363.811
363.704
363.6
363.5
363.403
363.309
363.217
363.129
363.043
362.96
362.879
362.801
362.725
362.652
362.58
362.511
362.444
362.379
362.315
362.254
362.194
362.136
362.079
362.024
361.97
361.918
361.867
361.816
361.767
361.719
361.672
361.625
361.579
361.534
361.489
361.445
361.401
361.357
361.314
361.27
361.227
361.183
361.14
361.096
361.052
361.007
360.962
360.917
360.872
360.826
360.779
360.732
360.685
360.637
360.589
360.54
360.49
360.441
360.39
360.34
360.289
360.238
360.187
360.136
360.084
360.033
359.981
359.93
359.879
359.829
359.778
359.729
359.679
359.631
359.583
359.536
359.49
359.444
359.4
359.357
359.315
359.274
359.234
359.195
359.158
359.122
359.087
359.054
359.022
358.991
358.962
358.934
358.908
358.882
358.859
358.836
358.815
358.795
358.776
358.759
358.743
358.727
358.713
358.7
358.688
358.677
358.667
358.658
358.65
358.642
358.636
358.63
358.625
358.62
358.616
358.613
358.61
385.472
383.329
382.644
381.652
380.84
380.066
379.338
378.652
378
377.379
376.786
376.218
375.675
375.154
374.653
374.173
373.711
373.267
372.84
372.428
372.032
371.65
371.282
370.928
370.585
370.255
369.936
369.629
369.332
369.045
368.768
368.5
368.242
367.992
367.75
367.517
367.291
367.072
366.861
366.657
366.459
366.268
366.083
365.904
365.731
365.563
365.401
365.243
365.091
364.944
364.801
364.663
364.53
364.4
364.275
364.153
364.035
363.921
363.811
363.704
363.6
363.5
363.403
363.308
363.217
363.128
363.043
362.959
362.879
362.801
362.725
362.651
362.58
362.51
362.443
362.378
362.314
362.253
362.193
362.134
362.077
362.022
361.967
361.914
361.862
361.811
361.761
361.712
361.664
361.616
361.568
361.522
361.475
361.428
361.382
361.336
361.289
361.242
361.195
361.148
361.1
361.052
361.003
360.953
360.903
360.851
360.799
360.746
360.692
360.637
360.581
360.524
360.465
360.406
360.346
360.285
360.223
360.16
360.096
360.031
359.966
359.9
359.833
359.765
359.698
359.629
359.561
359.492
359.423
359.354
359.285
359.217
359.148
359.08
359.013
358.946
358.88
358.815
358.75
358.687
358.625
358.563
358.503
358.445
358.388
358.332
358.277
358.224
358.173
358.124
358.075
358.029
357.984
357.941
357.9
357.86
357.822
357.785
357.75
357.717
357.685
357.655
357.626
357.598
357.572
357.548
357.524
357.502
357.481
357.462
357.443
357.426
357.409
357.394
357.379
385.624
383.31
382.651
381.654
380.841
380.066
379.338
378.653
378.001
377.38
376.787
376.219
375.676
375.155
374.655
374.174
373.712
373.268
372.841
372.429
372.033
371.651
371.283
370.928
370.586
370.256
369.937
369.63
369.333
369.046
368.769
368.501
368.242
367.992
367.751
367.517
367.291
367.073
366.862
366.657
366.46
366.268
366.083
365.904
365.731
365.563
365.401
365.244
365.091
364.944
364.801
364.663
364.53
364.4
364.275
364.153
364.035
363.921
363.811
363.704
363.6
363.5
363.403
363.308
363.217
363.128
363.042
362.959
362.878
362.8
362.724
362.651
362.579
362.51
362.443
362.377
362.313
362.252
362.191
362.133
362.075
362.02
361.965
361.911
361.859
361.807
361.757
361.707
361.657
361.609
361.56
361.512
361.464
361.416
361.367
361.319
361.27
361.221
361.172
361.121
361.07
361.018
360.965
360.912
360.857
360.801
360.743
360.685
360.625
360.563
360.5
360.436
360.371
360.303
360.235
360.165
360.093
360.02
359.946
359.87
359.793
359.715
359.635
359.555
359.473
359.391
359.307
359.223
359.138
359.053
358.968
358.882
358.795
358.709
358.623
358.537
358.451
358.366
358.281
358.197
358.114
358.032
357.951
357.87
357.792
357.714
357.638
357.563
357.49
357.419
357.349
357.282
357.216
357.152
357.089
357.029
356.971
356.915
356.861
356.808
356.758
356.71
356.663
356.619
356.576
356.535
356.496
356.459
356.423
356.389
356.357
356.326
356.297
356.269
356.243
385.758
383.288
382.654
381.652
380.839
380.064
379.337
378.652
378
377.38
376.787
376.22
375.676
375.155
374.655
374.175
373.713
373.269
372.841
372.43
372.034
371.652
371.284
370.929
370.586
370.256
369.937
369.63
369.333
369.046
368.769
368.501
368.242
367.992
367.751
367.517
367.291
367.073
366.862
366.657
366.46
366.268
366.083
365.904
365.731
365.563
365.401
365.243
365.091
364.944
364.801
364.663
364.529
364.4
364.274
364.153
364.035
363.921
363.811
363.704
363.6
363.5
363.402
363.308
363.217
363.128
363.042
362.959
362.878
362.8
362.724
362.65
362.579
362.509
362.442
362.376
362.313
362.251
362.19
362.131
362.074
362.018
361.963
361.909
361.856
361.804
361.753
361.703
361.652
361.603
361.554
361.504
361.455
361.406
361.356
361.306
361.256
361.205
361.154
361.101
361.048
360.993
360.937
360.88
360.822
360.762
360.701
360.638
360.574
360.508
360.44
360.37
360.299
360.225
360.15
360.073
359.994
359.914
359.831
359.747
359.661
359.573
359.484
359.393
359.3
359.206
359.111
359.015
358.917
358.818
358.719
358.618
358.517
358.416
358.313
358.211
358.108
358.006
357.903
357.801
357.699
357.598
357.497
357.397
357.298
357.2
357.103
357.008
356.914
356.822
356.731
356.643
356.556
356.471
356.388
356.307
356.228
356.152
356.078
356.006
355.936
355.869
355.804
355.742
355.682
355.624
355.568
355.515
355.464
355.415
355.368
355.324
355.281
355.24
355.201
385.873
383.264
382.652
381.648
380.835
380.061
379.335
378.65
377.999
377.379
376.786
376.219
375.676
375.155
374.655
374.175
373.713
373.269
372.841
372.43
372.034
371.652
371.284
370.929
370.587
370.256
369.938
369.63
369.333
369.046
368.769
368.501
368.242
367.992
367.751
367.517
367.291
367.073
366.861
366.657
366.459
366.268
366.083
365.904
365.731
365.563
365.4
365.243
365.091
364.944
364.801
364.663
364.529
364.4
364.274
364.153
364.035
363.921
363.81
363.703
363.6
363.499
363.402
363.307
363.216
363.127
363.042
362.958
362.878
362.799
362.723
362.65
362.578
362.509
362.441
362.376
362.312
362.25
362.189
362.13
362.073
362.016
361.961
361.907
361.854
361.802
361.75
361.699
361.649
361.598
361.549
361.499
361.449
361.398
361.348
361.297
361.245
361.193
361.14
361.086
361.031
360.974
360.917
360.857
360.797
360.734
360.67
360.604
360.536
360.467
360.395
360.321
360.245
360.167
360.087
360.005
359.921
359.834
359.745
359.655
359.562
359.467
359.37
359.271
359.17
359.067
358.963
358.856
358.749
358.639
358.529
358.417
358.303
358.189
358.074
357.958
357.841
357.724
357.606
357.488
357.37
357.252
357.134
357.017
356.9
356.784
356.668
356.554
356.44
356.328
356.217
356.108
356.001
355.895
355.792
355.69
355.591
355.494
355.4
355.308
355.218
355.131
355.047
354.966
354.887
354.811
354.738
354.668
354.6
354.535
354.473
354.413
354.356
354.302
354.249
385.97
383.239
382.647
381.642
380.829
380.057
379.332
378.648
377.998
377.378
376.786
376.219
375.676
375.155
374.655
374.174
373.713
373.269
372.841
372.43
372.034
371.652
371.284
370.929
370.586
370.256
369.937
369.63
369.333
369.046
368.769
368.501
368.242
367.992
367.751
367.517
367.291
367.073
366.861
366.657
366.459
366.268
366.083
365.904
365.73
365.562
365.4
365.243
365.091
364.943
364.801
364.662
364.529
364.399
364.274
364.152
364.034
363.92
363.81
363.703
363.599
363.499
363.401
363.307
363.215
363.127
363.041
362.958
362.877
362.799
362.723
362.649
362.577
362.508
362.44
362.375
362.311
362.249
362.188
362.129
362.071
362.015
361.96
361.905
361.852
361.8
361.748
361.696
361.646
361.595
361.545
361.494
361.444
361.393
361.342
361.29
361.237
361.184
361.13
361.075
361.018
360.96
360.901
360.84
360.778
360.713
360.647
360.579
360.509
360.436
360.362
360.285
360.206
360.125
360.041
359.955
359.867
359.776
359.682
359.587
359.489
359.388
359.286
359.181
359.073
358.964
358.852
358.739
358.623
358.506
358.386
358.265
358.143
358.019
357.893
357.766
357.638
357.509
357.379
357.248
357.117
356.985
356.853
356.72
356.588
356.455
356.323
356.192
356.061
355.931
355.801
355.673
355.547
355.421
355.298
355.176
355.057
354.939
354.824
354.712
354.602
354.495
354.39
354.289
354.19
354.095
354.003
353.914
353.829
353.746
353.667
353.591
353.519
353.449
353.383
386.048
383.213
382.64
381.634
380.823
380.053
379.329
378.646
377.996
377.376
376.784
376.218
375.675
375.154
374.654
374.174
373.712
373.268
372.841
372.43
372.033
371.651
371.283
370.929
370.586
370.256
369.937
369.63
369.332
369.046
368.768
368.501
368.242
367.992
367.75
367.517
367.291
367.072
366.861
366.656
366.459
366.267
366.082
365.903
365.73
365.562
365.399
365.242
365.09
364.943
364.8
364.662
364.528
364.398
364.273
364.151
364.034
363.92
363.809
363.702
363.598
363.498
363.401
363.306
363.215
363.126
363.04
362.957
362.876
362.798
362.722
362.648
362.577
362.507
362.439
362.374
362.31
362.248
362.187
362.128
362.07
362.014
361.958
361.904
361.85
361.798
361.746
361.694
361.643
361.592
361.542
361.491
361.44
361.389
361.337
361.284
361.231
361.177
361.122
361.066
361.009
360.95
360.89
360.828
360.764
360.698
360.63
360.561
360.489
360.414
360.338
360.259
360.178
360.094
360.008
359.919
359.827
359.733
359.637
359.537
359.436
359.331
359.224
359.115
359.003
358.889
358.772
358.653
358.531
358.408
358.282
358.154
358.024
357.893
357.759
357.624
357.487
357.349
357.209
357.068
356.926
356.783
356.639
356.494
356.349
356.203
356.057
355.911
355.765
355.619
355.473
355.328
355.184
355.041
354.898
354.758
354.618
354.481
354.345
354.212
354.081
353.953
353.827
353.705
353.585
353.469
353.357
353.247
353.142
353.041
352.943
352.849
352.759
352.674
352.592
386.108
383.188
382.631
381.626
380.817
380.048
379.325
378.643
377.994
377.375
376.783
376.217
375.674
375.153
374.654
374.173
373.712
373.268
372.84
372.429
372.033
371.651
371.283
370.928
370.586
370.255
369.937
369.629
369.332
369.045
368.768
368.5
368.241
367.991
367.75
367.516
367.29
367.072
366.86
366.656
366.458
366.267
366.082
365.902
365.729
365.561
365.399
365.242
365.089
364.942
364.799
364.661
364.527
364.398
364.272
364.151
364.033
363.919
363.808
363.701
363.598
363.497
363.4
363.305
363.214
363.125
363.039
362.956
362.875
362.797
362.721
362.647
362.576
362.506
362.439
362.373
362.309
362.247
362.186
362.127
362.069
362.012
361.957
361.902
361.849
361.796
361.744
361.692
361.641
361.59
361.539
361.488
361.437
361.385
361.333
361.28
361.227
361.172
361.117
361.06
361.002
360.942
360.881
360.818
360.754
360.687
360.618
360.547
360.474
360.398
360.321
360.24
360.157
360.072
359.983
359.892
359.799
359.703
359.604
359.502
359.397
359.29
359.18
359.068
358.952
358.834
358.714
358.591
358.465
358.337
358.207
358.074
357.939
357.801
357.662
357.521
357.377
357.232
357.085
356.937
356.786
356.635
356.482
356.327
356.172
356.015
355.858
355.7
355.541
355.382
355.223
355.063
354.904
354.744
354.586
354.427
354.27
354.114
353.959
353.806
353.654
353.505
353.358
353.213
353.072
352.934
352.799
352.668
352.54
352.418
352.299
352.185
352.076
351.971
351.871
386.153
383.162
382.621
381.618
380.811
380.044
379.322
378.641
377.992
377.373
376.782
376.216
375.673
375.152
374.653
374.173
373.711
373.267
372.84
372.428
372.032
371.65
371.282
370.927
370.585
370.255
369.936
369.628
369.331
369.044
368.767
368.499
368.241
367.991
367.749
367.515
367.289
367.071
366.859
366.655
366.457
366.266
366.081
365.902
365.728
365.56
365.398
365.241
365.089
364.941
364.798
364.66
364.526
364.397
364.271
364.15
364.032
363.918
363.807
363.7
363.597
363.496
363.399
363.304
363.213
363.124
363.038
362.955
362.874
362.796
362.72
362.646
362.575
362.505
362.438
362.372
362.308
362.246
362.185
362.126
362.068
362.011
361.956
361.901
361.848
361.795
361.742
361.691
361.639
361.588
361.537
361.486
361.434
361.382
361.33
361.277
361.223
361.168
361.112
361.055
360.997
360.937
360.875
360.812
360.746
360.679
360.609
360.537
360.463
360.387
360.308
360.226
360.142
360.055
359.966
359.874
359.779
359.681
359.58
359.477
359.37
359.261
359.149
359.034
358.916
358.796
358.673
358.547
358.418
358.287
358.153
358.017
357.878
357.737
357.593
357.447
357.299
357.149
356.997
356.842
356.686
356.528
356.368
356.207
356.044
355.879
355.713
355.546
355.377
355.208
355.037
354.866
354.694
354.521
354.348
354.175
354.002
353.829
353.656
353.484
353.313
353.143
352.975
352.808
352.644
352.482
352.323
352.167
352.016
351.868
351.726
351.588
351.456
351.33
351.21
386.184
383.137
382.61
381.609
380.805
380.04
379.319
378.638
377.99
377.372
376.78
376.214
375.672
375.151
374.652
374.172
373.71
373.266
372.839
372.428
372.031
371.65
371.282
370.927
370.584
370.254
369.935
369.628
369.331
369.044
368.766
368.499
368.24
367.99
367.748
367.514
367.289
367.07
366.859
366.654
366.456
366.265
366.08
365.901
365.727
365.56
365.397
365.24
365.088
364.94
364.798
364.659
364.526
364.396
364.27
364.149
364.031
363.917
363.807
363.699
363.596
363.495
363.398
363.303
363.212
363.123
363.037
362.954
362.873
362.795
362.719
362.645
362.574
362.504
362.436
362.371
362.307
362.245
362.184
362.125
362.067
362.01
361.954
361.9
361.846
361.793
361.741
361.689
361.638
361.586
361.535
361.484
361.432
361.38
361.328
361.274
361.22
361.165
361.109
361.052
360.993
360.932
360.87
360.806
360.741
360.673
360.603
360.53
360.456
360.379
360.299
360.217
360.132
360.044
359.954
359.86
359.764
359.665
359.564
359.459
359.351
359.24
359.127
359.01
358.891
358.769
358.644
358.516
358.385
358.252
358.116
357.977
357.836
357.692
357.545
357.396
357.245
357.091
356.935
356.777
356.616
356.454
356.289
356.123
355.954
355.784
355.612
355.438
355.262
355.085
354.906
354.726
354.544
354.361
354.177
353.992
353.806
353.619
353.431
353.243
353.055
352.867
352.678
352.491
352.304
352.119
351.935
351.754
351.576
351.401
351.231
351.066
350.906
350.753
350.608
386.201
383.112
382.598
381.601
380.799
380.036
379.316
378.636
377.988
377.37
376.779
376.213
375.671
375.15
374.651
374.171
373.709
373.265
372.838
372.427
372.031
371.649
371.281
370.926
370.584
370.253
369.935
369.627
369.33
369.043
368.766
368.498
368.239
367.989
367.747
367.514
367.288
367.069
366.858
366.653
366.456
366.264
366.079
365.9
365.726
365.559
365.396
365.239
365.087
364.939
364.797
364.658
364.525
364.395
364.269
364.148
364.03
363.916
363.805
363.698
363.595
363.494
363.397
363.302
363.211
363.122
363.036
362.953
362.872
362.794
362.718
362.644
362.573
362.503
362.435
362.37
362.306
362.243
362.183
362.123
362.065
362.009
361.953
361.899
361.845
361.792
361.74
361.688
361.636
361.585
361.533
361.482
361.43
361.378
361.326
361.272
361.218
361.163
361.106
361.049
360.99
360.929
360.867
360.803
360.737
360.668
360.598
360.525
360.45
360.373
360.293
360.21
360.124
360.036
359.945
359.851
359.754
359.655
359.552
359.447
359.338
359.226
359.112
358.994
358.874
358.751
358.624
358.495
358.363
358.228
358.091
357.95
357.807
357.661
357.513
357.362
357.208
357.052
356.893
356.733
356.569
356.404
356.236
356.066
355.894
355.719
355.543
355.364
355.183
355.001
354.816
354.63
354.441
354.251
354.059
353.865
353.669
353.471
353.272
353.071
352.868
352.664
352.459
352.252
352.045
351.837
351.628
351.42
351.213
351.007
350.804
350.605
350.411
350.224
350.046
386.202
383.087
382.586
381.594
380.795
380.033
379.314
378.634
377.986
377.368
376.777
376.212
375.669
375.149
374.65
374.17
373.708
373.264
372.837
372.426
372.03
371.648
371.28
370.925
370.583
370.252
369.934
369.626
369.329
369.042
368.765
368.497
368.238
367.988
367.746
367.513
367.287
367.068
366.857
366.652
366.455
366.263
366.078
365.899
365.725
365.558
365.395
365.238
365.086
364.938
364.796
364.657
364.524
364.394
364.268
364.147
364.029
363.915
363.804
363.697
363.594
363.493
363.396
363.301
363.21
363.121
363.035
362.952
362.871
362.793
362.717
362.643
362.571
362.502
362.434
362.369
362.305
362.242
362.182
362.122
362.064
362.008
361.952
361.897
361.844
361.791
361.738
361.686
361.635
361.583
361.532
361.48
361.429
361.377
361.324
361.27
361.216
361.161
361.104
361.047
360.987
360.927
360.864
360.8
360.734
360.665
360.595
360.522
360.446
360.369
360.288
360.205
360.119
360.031
359.939
359.845
359.748
359.648
359.545
359.438
359.329
359.217
359.102
358.984
358.863
358.739
358.612
358.482
358.349
358.213
358.074
357.933
357.789
357.642
357.492
357.34
357.185
357.027
356.867
356.705
356.54
356.372
356.202
356.03
355.856
355.679
355.499
355.318
355.134
354.948
354.76
354.57
354.377
354.182
353.984
353.784
353.582
353.377
353.17
352.96
352.748
352.532
352.314
352.093
351.869
351.643
351.413
351.181
350.946
350.709
350.472
350.234
349.998
349.765
349.541
386.189
383.065
382.576
381.589
380.791
380.03
379.312
378.632
377.985
377.367
376.776
376.21
375.668
375.148
374.648
374.169
373.707
373.263
372.836
372.425
372.029
371.647
371.279
370.924
370.582
370.251
369.932
369.625
369.328
369.041
368.764
368.496
368.237
367.987
367.745
367.512
367.286
367.067
366.856
366.651
366.453
366.262
366.077
365.898
365.724
365.557
365.394
365.237
365.085
364.937
364.795
364.656
364.522
364.393
364.267
364.146
364.028
363.914
363.803
363.696
363.593
363.492
363.395
363.3
363.209
363.12
363.034
362.951
362.87
362.792
362.716
362.642
362.57
362.501
362.433
362.368
362.304
362.241
362.181
362.121
362.063
362.007
361.951
361.896
361.843
361.79
361.737
361.685
361.634
361.582
361.531
361.479
361.427
361.375
361.323
361.269
361.215
361.159
361.103
361.045
360.986
360.925
360.862
360.798
360.732
360.663
360.592
360.519
360.444
360.366
360.285
360.202
360.116
360.027
359.936
359.841
359.744
359.643
359.54
359.433
359.324
359.211
359.096
358.977
358.856
358.731
358.604
358.473
358.34
358.204
358.064
357.922
357.777
357.63
357.479
357.326
357.171
357.012
356.851
356.688
356.522
356.353
356.182
356.008
355.832
355.654
355.473
355.29
355.105
354.917
354.726
354.533
354.338
354.14
353.939
353.736
353.53
353.321
353.109
352.893
352.674
352.452
352.225
351.995
351.759
351.519
351.273
351.021
350.762
350.495
350.22
349.936
349.644
349.339
349.032
386.18
383.055
382.571
381.586
380.79
380.029
379.31
378.631
377.984
377.366
376.775
376.209
375.667
375.147
374.648
374.168
373.706
373.262
372.835
372.424
372.028
371.646
371.278
370.923
370.581
370.25
369.932
369.624
369.327
369.04
368.763
368.495
368.236
367.986
367.744
367.511
367.285
367.066
366.855
366.65
366.453
366.261
366.076
365.897
365.724
365.556
365.393
365.236
365.084
364.936
364.794
364.655
364.522
364.392
364.266
364.145
364.027
363.913
363.803
363.696
363.592
363.491
363.394
363.3
363.208
363.119
363.033
362.95
362.869
362.791
362.715
362.641
362.57
362.5
362.432
362.367
362.303
362.24
362.18
362.12
362.062
362.006
361.95
361.895
361.842
361.789
361.736
361.684
361.633
361.581
361.53
361.478
361.426
361.374
361.321
361.268
361.214
361.158
361.102
361.044
360.984
360.924
360.861
360.797
360.73
360.662
360.591
360.518
360.442
360.364
360.283
360.2
360.114
360.025
359.933
359.839
359.741
359.641
359.537
359.431
359.321
359.208
359.093
358.974
358.852
358.728
358.6
358.469
358.336
358.199
358.06
357.917
357.772
357.624
357.474
357.32
357.164
357.005
356.844
356.68
356.514
356.345
356.173
355.999
355.823
355.644
355.462
355.279
355.092
354.904
354.712
354.518
354.322
354.123
353.921
353.717
353.509
353.298
353.084
352.867
352.645
352.42
352.19
351.956
351.716
351.469
351.216
350.955
350.685
350.404
350.111
349.801
349.475
349.118
348.76
365.918
366.047
366.194
366.36
366.551
366.768
367.018
367.306
367.638
368.023
368.472
368.996
369.612
370.34
371.202
372.231
373.463
374.949
376.749
378.943
381.631
384.94
389.037
394.13
400.484
408.429
418.362
430.738
446.027
464.599
365.196
365.313
365.447
365.6
365.774
365.974
366.204
366.47
366.778
367.135
367.553
368.044
368.622
369.306
370.121
371.096
372.269
373.687
375.411
377.518
380.108
383.306
387.277
392.229
398.428
406.207
415.972
428.19
443.352
461.846
364.067
364.166
364.279
364.409
364.558
364.729
364.927
365.158
365.426
365.74
366.109
366.545
367.062
367.679
368.418
369.308
370.386
371.697
373.3
375.269
377.701
380.72
384.486
389.207
395.15
402.653
412.136
424.087
439.033
457.392
362.734
362.81
362.898
362.999
363.116
363.253
363.413
363.6
363.82
364.081
364.392
364.763
365.208
365.744
366.394
367.185
368.15
369.334
370.793
372.598
374.84
377.641
381.156
385.592
391.215
398.372
407.497
419.108
433.779
451.969
361.331
361.381
361.441
361.511
361.594
361.693
361.81
361.95
362.119
362.323
362.571
362.873
363.242
363.695
364.251
364.938
365.787
366.839
368.147
369.777
371.817
374.382
377.622
381.742
387.009
393.775
402.494
413.718
428.073
446.073
359.939
359.963
359.993
360.03
360.077
360.136
360.209
360.302
360.419
360.566
360.752
360.986
361.281
361.653
362.12
362.708
363.445
364.369
365.528
366.985
368.822
371.146
374.104
377.895
382.788
389.141
397.427
408.233
422.247
440.046
358.606
358.602
358.602
358.606
358.616
358.635
358.665
358.711
358.777
358.87
358.997
359.169
359.397
359.695
360.083
360.58
361.215
362.022
363.042
364.334
365.974
368.063