/*--------------------------------*- C++ -*----------------------------------*\
| =========                 |                                                 |
| \\      /  F ield         | OpenFOAM: The Open Source CFD Toolbox           |
|  \\    /   O peration     | Version:  2.1.1                                 |
|   \\  /    A nd           | Web:      www.OpenFOAM.org                      |
|    \\/     M anipulation  |                                                 |
\*---------------------------------------------------------------------------*/
FoamFile
{
    version     2.0;
    format      ascii;
    class       surfaceScalarField;
    location    "4800";
    object      phi;
}
// * * * * * * * * * * * * * * * * * * * * * * * * * * * * * * * * * * * * * //

dimensions      [0 3 -1 0 0 0 0];

internalField   nonuniform List<scalar> 
108570
(
0.000281672
-5.14769e-07
3.98788e-15
0.000282148
-4.754e-07
3.72906e-14
0.000282591
-4.43063e-07
4.14948e-14
0.000282978
-3.86967e-07
-5.12046e-14
0.000283319
-3.41481e-07
-1.60565e-14
0.00028362
-3.00856e-07
1.04886e-13
0.000283886
-2.66116e-07
6.63652e-14
0.000284123
-2.369e-07
2.77635e-14
0.000284336
-2.12471e-07
3.86196e-14
0.000284528
-1.92209e-07
1.12401e-14
0.000284703
-1.75355e-07
-1.39822e-14
0.000284864
-1.61221e-07
6.2102e-14
0.000285014
-1.49248e-07
6.58538e-14
0.000285153
-1.3899e-07
4.918e-14
0.000285283
-1.301e-07
5.46132e-14
0.000285405
-1.22314e-07
4.70408e-14
0.000285521
-1.15427e-07
4.51091e-14
0.00028563
-1.09279e-07
4.99373e-14
0.000285734
-1.03746e-07
5.5352e-14
0.000285832
-9.87307e-08
5.77037e-14
0.000285926
-9.41535e-08
6.86475e-14
0.000286016
-8.99516e-08
6.12278e-14
0.000286102
-8.60734e-08
6.01092e-14
0.000286185
-8.24767e-08
6.41897e-14
0.000286264
-7.91266e-08
6.82037e-14
0.00028634
-7.59942e-08
7.17497e-14
0.000286413
-7.3055e-08
7.15082e-14
0.000286483
-7.02885e-08
7.22207e-14
0.000286551
-6.76772e-08
7.46676e-14
0.000286616
-6.52063e-08
7.04773e-14
0.000286679
-6.28628e-08
7.12248e-14
0.00028674
-6.06355e-08
6.75723e-14
0.000286798
-5.8515e-08
6.4524e-14
0.000286855
-5.64926e-08
6.07287e-14
0.000286909
-5.45612e-08
5.28134e-14
0.000286962
-5.27139e-08
4.26999e-14
0.000287013
-5.09451e-08
3.07912e-14
0.000287062
-4.92496e-08
1.213e-14
0.00028711
-4.76226e-08
-1.41988e-14
0.000287156
-4.60601e-08
-4.91431e-14
0.000287201
-4.45584e-08
-9.49017e-14
0.000287244
-4.31138e-08
-1.55722e-13
0.000287285
-4.17234e-08
-2.35363e-13
0.000287326
-4.03844e-08
-3.37705e-13
0.000287365
-3.9094e-08
-4.68855e-13
0.000287403
-3.78498e-08
-6.35647e-13
0.000287439
-3.66498e-08
-8.45795e-13
0.000287475
-3.54918e-08
-1.1084e-12
0.000287509
-3.43738e-08
-1.43333e-12
0.000287543
-3.32942e-08
-1.83251e-12
0.000287575
-3.22513e-08
-2.31887e-12
0.000287606
-3.12434e-08
-2.90637e-12
0.000287636
-3.02691e-08
-3.61061e-12
0.000287666
-2.93269e-08
-4.44839e-12
0.000287694
-2.84156e-08
-5.43787e-12
0.000287722
-2.75339e-08
-6.59842e-12
0.000287748
-2.66804e-08
-7.95001e-12
0.000287774
-2.58542e-08
-9.51367e-12
0.000287799
-2.50539e-08
-1.1311e-11
0.000287823
-2.42784e-08
-1.33637e-11
0.000287847
-2.35265e-08
-1.56938e-11
0.00028787
-2.27972e-08
-1.8323e-11
0.000287892
-2.20892e-08
-2.12723e-11
0.000287913
-2.14013e-08
-2.45619e-11
0.000287934
-2.07323e-08
-2.82109e-11
0.000287954
-2.00808e-08
-3.22369e-11
0.000287974
-1.94454e-08
-3.66555e-11
0.000287993
-1.88247e-08
-4.14801e-11
0.000288011
-1.82171e-08
-4.67221e-11
0.000288029
-1.76208e-08
-5.23898e-11
0.000288046
-1.7034e-08
-5.84889e-11
0.000288062
-1.64549e-08
-6.50221e-11
0.000288078
-1.58811e-08
-7.19886e-11
0.000288093
-1.53105e-08
-7.93847e-11
0.000288108
-1.47407e-08
-8.72028e-11
0.000288123
-1.41691e-08
-9.54326e-11
0.000288136
-1.35932e-08
-1.0406e-10
0.000288149
-1.301e-08
-1.13068e-10
0.000288162
-1.24169e-08
-1.22435e-10
0.000288174
-1.18106e-08
-1.32139e-10
0.000288185
-1.11883e-08
-1.42153e-10
0.000288196
-1.05469e-08
-1.52449e-10
0.000288206
-9.88356e-09
-1.62995e-10
0.000288215
-9.19504e-09
-1.73757e-10
0.000288224
-8.47869e-09
-1.84701e-10
0.000288232
-7.73165e-09
-1.9579e-10
0.000288239
-6.95151e-09
-2.06986e-10
0.000288245
-6.13584e-09
-2.18251e-10
0.000288251
-5.2825e-09
-2.29544e-10
0.000288256
-4.38987e-09
-2.40826e-10
0.000288259
-3.45638e-09
-2.52058e-10
0.000288262
-2.48104e-09
-2.63199e-10
0.000288264
-1.46315e-09
-2.74213e-10
0.000288264
-4.02448e-10
-2.85059e-10
0.000288264
7.00787e-10
-2.95704e-10
0.000288263
1.84608e-09
-3.0611e-10
0.00028826
3.03215e-09
-3.16244e-10
0.000288256
4.25754e-09
-3.26075e-10
0.000288251
5.52023e-09
-3.35571e-10
0.000288244
6.81779e-09
-3.44706e-10
0.000288236
8.1473e-09
-3.53454e-10
0.000288227
9.50569e-09
-3.61791e-10
0.000288217
1.08892e-08
-3.69696e-10
0.000288205
1.2294e-08
-3.77152e-10
0.000288191
1.37159e-08
-3.84142e-10
0.000288177
1.51505e-08
-3.90652e-10
0.000288161
1.65932e-08
-3.96673e-10
0.000288143
1.80392e-08
-4.02195e-10
0.000288124
1.94838e-08
-4.07212e-10
0.000288103
2.0922e-08
-4.11721e-10
0.000288081
2.2349e-08
-4.1572e-10
0.000288058
2.37599e-08
-4.19209e-10
0.000288033
2.51502e-08
-4.22192e-10
0.000288007
2.65151e-08
-4.24673e-10
0.00028798
2.78502e-08
-4.26658e-10
0.000287951
2.91515e-08
-4.28156e-10
0.000287921
3.04147e-08
-4.29177e-10
0.00028789
3.16364e-08
-4.29731e-10
0.000287857
3.28131e-08
-4.29831e-10
0.000287824
3.39417e-08
-4.29491e-10
0.000287789
3.50194e-08
-4.28725e-10
0.000287754
3.60437e-08
-4.27548e-10
0.000287717
3.70126e-08
-4.25977e-10
0.00028768
3.79242e-08
-4.24028e-10
0.000287641
3.8777e-08
-4.21719e-10
0.000287602
3.957e-08
-4.19067e-10
0.000287562
4.03022e-08
-4.1609e-10
0.000287522
4.09733e-08
-4.12807e-10
0.000287481
4.15829e-08
-4.09234e-10
0.000287439
4.21312e-08
-4.05391e-10
0.000287397
4.26184e-08
-4.01295e-10
0.000287354
4.30452e-08
-3.96963e-10
0.000287311
4.34123e-08
-3.92414e-10
0.000287268
4.37207e-08
-3.87664e-10
0.000287224
4.39717e-08
-3.82731e-10
0.00028718
4.41665e-08
-3.7763e-10
0.000287136
4.43069e-08
-3.72377e-10
0.000287092
4.43943e-08
-3.66988e-10
0.000287048
4.44305e-08
-3.61477e-10
0.000287004
4.44174e-08
-3.5586e-10
0.00028696
4.43569e-08
-3.50149e-10
0.000286916
4.42512e-08
-3.44358e-10
0.000286872
4.4102e-08
-3.385e-10
0.000286829
4.39118e-08
-3.32586e-10
0.000286786
4.36823e-08
-3.26628e-10
0.000286742
4.3416e-08
-3.20637e-10
0.0002867
4.31148e-08
-3.14622e-10
0.000286657
4.27807e-08
-3.08594e-10
0.000286615
4.24161e-08
-3.02562e-10
0.000286573
4.20227e-08
-2.96533e-10
0.000286532
4.1603e-08
-2.90517e-10
0.000286491
4.11584e-08
-2.84521e-10
0.000286451
4.06913e-08
-2.78551e-10
0.000286411
4.02033e-08
-2.72614e-10
0.000286371
3.96964e-08
-2.66717e-10
0.000286332
3.91722e-08
-2.60864e-10
0.000286294
3.86326e-08
-2.55061e-10
0.000286256
3.8079e-08
-2.49312e-10
0.000286219
3.75132e-08
-2.43623e-10
0.000286182
3.69366e-08
-2.37996e-10
0.000286146
3.63506e-08
-2.32437e-10
0.000286111
3.57568e-08
-2.26948e-10
0.000286076
3.51561e-08
-2.21533e-10
0.000286041
3.45501e-08
-2.16196e-10
0.000286008
3.39398e-08
-2.10938e-10
0.000285975
3.33265e-08
-2.05763e-10
0.000285942
3.2711e-08
-2.00675e-10
0.00028591
3.20944e-08
-1.95675e-10
0.000285879
3.14777e-08
-1.90767e-10
0.000285848
3.08616e-08
-1.85952e-10
0.000285818
3.02472e-08
-1.81235e-10
0.000285789
2.9635e-08
-1.76619e-10
0.00028576
2.90258e-08
-1.72104e-10
0.000285732
2.84203e-08
-1.67696e-10
2.7819e-08
0.000285704
-1.63397e-10
0.000240592
-9.60732e-07
0.000240994
-8.77791e-07
0.000241363
-8.12107e-07
0.000241683
-7.06587e-07
0.000241961
-6.20082e-07
0.000242204
-5.43832e-07
0.000242417
-4.79234e-07
0.000242606
-4.25462e-07
0.000242774
-3.80966e-07
0.000242927
-3.44346e-07
0.000243065
-3.14055e-07
0.000243193
-2.88753e-07
0.000243311
-2.67374e-07
0.000243421
-2.49087e-07
0.000243524
-2.33257e-07
0.000243621
-2.194e-07
0.000243713
-2.07147e-07
0.0002438
-1.96212e-07
0.000243882
-1.8637e-07
0.000243961
-1.77446e-07
0.000244036
-1.693e-07
0.000244108
-1.61819e-07
0.000244177
-1.54911e-07
0.000244243
-1.48501e-07
0.000244306
-1.42528e-07
0.000244367
-1.36939e-07
0.000244426
-1.31691e-07
0.000244483
-1.26749e-07
0.000244537
-1.22081e-07
0.000244589
-1.17662e-07
0.00024464
-1.13467e-07
0.000244689
-1.09479e-07
0.000244736
-1.05679e-07
0.000244782
-1.02053e-07
0.000244826
-9.85884e-08
0.000244868
-9.52729e-08
0.000244909
-9.20965e-08
0.000244949
-8.90502e-08
0.000244988
-8.61258e-08
0.000245025
-8.33159e-08
0.000245061
-8.06141e-08
0.000245096
-7.80141e-08
0.00024513
-7.55106e-08
0.000245162
-7.30986e-08
0.000245194
-7.07735e-08
0.000245225
-6.8531e-08
0.000245254
-6.63673e-08
0.000245283
-6.42787e-08
0.000245311
-6.22619e-08
0.000245338
-6.03138e-08
0.000245364
-5.84313e-08
0.00024539
-5.66117e-08
0.000245414
-5.48525e-08
0.000245438
-5.31511e-08
0.000245461
-5.15052e-08
0.000245484
-4.99126e-08
0.000245505
-4.8371e-08
0.000245526
-4.68783e-08
0.000245547
-4.54327e-08
0.000245566
-4.40319e-08
0.000245586
-4.26741e-08
0.000245604
-4.13571e-08
0.000245622
-4.0079e-08
0.000245639
-3.88376e-08
0.000245656
-3.76307e-08
0.000245673
-3.64561e-08
0.000245689
-3.53113e-08
0.000245704
-3.41938e-08
0.000245719
-3.31009e-08
0.000245733
-3.20294e-08
0.000245747
-3.09764e-08
0.000245761
-2.99385e-08
0.000245774
-2.89119e-08
0.000245786
-2.7893e-08
0.000245798
-2.68774e-08
0.00024581
-2.5861e-08
0.000245821
-2.48391e-08
0.000245832
-2.38069e-08
0.000245843
-2.27595e-08
0.000245852
-2.16919e-08
0.000245862
-2.05989e-08
0.000245871
-1.94752e-08
0.000245879
-1.83156e-08
0.000245887
-1.71152e-08
0.000245895
-1.58688e-08
0.000245901
-1.45717e-08
0.000245908
-1.32195e-08
0.000245913
-1.18081e-08
0.000245918
-1.03337e-08
0.000245923
-8.79313e-09
0.000245926
-7.18381e-09
0.000245929
-5.50362e-09
0.000245932
-3.75117e-09
0.000245933
-1.92573e-09
0.000245934
-2.73897e-11
0.000245934
1.94311e-09
0.000245933
3.98422e-09
0.000245931
6.09363e-09
0.000245928
8.26845e-09
0.000245925
1.05046e-08
0.00024592
1.27979e-08
0.000245914
1.5143e-08
0.000245908
1.75343e-08
0.0002459
1.99653e-08
0.000245891
2.24293e-08
0.000245882
2.4919e-08
0.000245871
2.74268e-08
0.000245859
2.99448e-08
0.000245846
3.24651e-08
0.000245832
3.49792e-08
0.000245817
3.7479e-08
0.000245801
3.99564e-08
0.000245783
4.24031e-08
0.000245765
4.48112e-08
0.000245746
4.71731e-08
0.000245725
4.94813e-08
0.000245704
5.1729e-08
0.000245682
5.39093e-08
0.000245659
5.60163e-08
0.000245634
5.8044e-08
0.000245609
5.99875e-08
0.000245584
6.18421e-08
0.000245557
6.36036e-08
0.00024553
6.52687e-08
0.000245502
6.68341e-08
0.000245473
6.82976e-08
0.000245444
6.96573e-08
0.000245414
7.09118e-08
0.000245383
7.20602e-08
0.000245352
7.31025e-08
0.000245321
7.40385e-08
0.000245289
7.48689e-08
0.000245257
7.55946e-08
0.000245224
7.62172e-08
0.000245192
7.67384e-08
0.000245159
7.71601e-08
0.000245125
7.74847e-08
0.000245092
7.7715e-08
0.000245059
7.78537e-08
0.000245025
7.79038e-08
0.000244992
7.78685e-08
0.000244958
7.77514e-08
0.000244925
7.75555e-08
0.000244891
7.72848e-08
0.000244858
7.69426e-08
0.000244825
7.65327e-08
0.000244792
7.60587e-08
0.000244759
7.55242e-08
0.000244727
7.4933e-08
0.000244694
7.42885e-08
0.000244662
7.35946e-08
0.000244631
7.28544e-08
0.000244599
7.20716e-08
0.000244568
7.12494e-08
0.000244538
7.03913e-08
0.000244507
6.95001e-08
0.000244477
6.85793e-08
0.000244448
6.76314e-08
0.000244419
6.66596e-08
0.00024439
6.56664e-08
0.000244362
6.46546e-08
0.000244334
6.36266e-08
0.000244306
6.25848e-08
0.000244279
6.15317e-08
0.000244253
6.04691e-08
0.000244227
5.93992e-08
0.000244201
5.8324e-08
0.000244176
5.72453e-08
0.000244151
5.61648e-08
0.000244127
5.50842e-08
0.000244103
5.40049e-08
0.00024408
5.29284e-08
0.000244057
5.1856e-08
0.000244035
5.07889e-08
4.97284e-08
0.000244013
0.000205506
-1.35052e-06
0.000205843
-1.21472e-06
0.000206143
-1.11261e-06
0.000206399
-9.62107e-07
0.000206616
-8.3782e-07
0.000206803
-7.30017e-07
0.000206963
-6.4001e-07
0.000207104
-5.66211e-07
0.000207229
-5.05993e-07
0.000207342
-4.56944e-07
0.000207444
-4.16664e-07
0.000207539
-3.83179e-07
0.000207626
-3.54974e-07
0.000207708
-3.30896e-07
0.000207785
-3.10079e-07
0.000207857
-2.91869e-07
0.000207926
-2.75773e-07
0.000207991
-2.61408e-07
0.000208053
-2.48477e-07
0.000208113
-2.36748e-07
0.000208169
-2.26034e-07
0.000208224
-2.1619e-07
0.000208276
-2.07092e-07
0.000208326
-1.98643e-07
0.000208374
-1.90763e-07
0.000208421
-1.83383e-07
0.000208466
-1.76448e-07
0.000208509
-1.6991e-07
0.00020855
-1.6373e-07
0.000208591
-1.57873e-07
0.000208629
-1.52309e-07
0.000208667
-1.47014e-07
0.000208703
-1.41966e-07
0.000208738
-1.37143e-07
0.000208772
-1.32532e-07
0.000208805
-1.28116e-07
0.000208837
-1.23882e-07
0.000208868
-1.19819e-07
0.000208897
-1.15916e-07
0.000208926
-1.12163e-07
0.000208954
-1.08552e-07
0.000208981
-1.05075e-07
0.000209008
-1.01726e-07
0.000209033
-9.84974e-08
0.000209058
-9.53831e-08
0.000209081
-9.23786e-08
0.000209105
-8.9478e-08
0.000209127
-8.66772e-08
0.000209149
-8.39707e-08
0.00020917
-8.13564e-08
0.00020919
-7.88287e-08
0.00020921
-7.63848e-08
0.000209229
-7.40212e-08
0.000209248
-7.1735e-08
0.000209266
-6.95224e-08
0.000209283
-6.73807e-08
0.0002093
-6.53078e-08
0.000209316
-6.32996e-08
0.000209332
-6.13556e-08
0.000209348
-5.94701e-08
0.000209363
-5.76435e-08
0.000209377
-5.58716e-08
0.000209391
-5.41523e-08
0.000209405
-5.24818e-08
0.000209418
-5.08586e-08
0.000209431
-4.92792e-08
0.000209443
-4.7741e-08
0.000209456
-4.62405e-08
0.000209467
-4.47734e-08
0.000209478
-4.33367e-08
0.000209489
-4.1926e-08
0.0002095
-4.05387e-08
0.00020951
-3.9168e-08
0.00020952
-3.78097e-08
0.00020953
-3.64598e-08
0.000209539
-3.51111e-08
0.000209548
-3.37592e-08
0.000209557
-3.23976e-08
0.000209565
-3.10206e-08
0.000209573
-2.96202e-08
0.00020958
-2.81924e-08
0.000209588
-2.67287e-08
0.000209594
-2.5224e-08
0.000209601
-2.36701e-08
0.000209607
-2.20631e-08
0.000209613
-2.03946e-08
0.000209619
-1.86602e-08
0.000209624
-1.68546e-08
0.000209628
-1.49731e-08
0.000209632
-1.30109e-08
0.000209636
-1.09644e-08
0.00020964
-8.83151e-09
0.000209642
-6.61011e-09
0.000209645
-4.29843e-09
0.000209647
-1.89612e-09
0.000209648
5.96275e-10
0.000209649
3.1767e-09
0.000209649
5.84397e-09
0.000209649
8.59302e-09
0.000209648
1.14214e-08
0.000209646
1.43236e-08
0.000209644
1.72931e-08
0.000209641
2.03251e-08
0.000209638
2.34092e-08
0.000209634
2.65405e-08
0.000209629
2.97093e-08
0.000209623
3.29065e-08
0.000209617
3.61227e-08
0.00020961
3.93476e-08
0.000209603
4.25732e-08
0.000209595
4.57874e-08
0.000209586
4.89815e-08
0.000209576
5.21442e-08
0.000209565
5.52667e-08
0.000209554
5.83394e-08
0.000209542
6.13524e-08
0.00020953
6.42959e-08
0.000209516
6.71631e-08
0.000209503
6.99442e-08
0.000209488
7.26327e-08
0.000209473
7.52217e-08
0.000209457
7.77034e-08
0.00020944
8.0074e-08
0.000209423
8.2327e-08
0.000209406
8.44576e-08
0.000209388
8.64641e-08
0.000209369
8.83412e-08
0.00020935
9.0087e-08
0.00020933
9.17002e-08
0.00020931
9.31803e-08
0.000209289
9.45244e-08
0.000209269
9.57354e-08
0.000209247
9.68114e-08
0.000209226
9.77549e-08
0.000209204
9.85673e-08
0.000209182
9.92501e-08
0.00020916
9.98063e-08
0.000209137
1.00238e-07
0.000209114
1.0055e-07
0.000209092
1.00744e-07
0.000209069
1.00824e-07
0.000209046
1.00795e-07
0.000209022
1.0066e-07
0.000208999
1.00424e-07
0.000208976
1.00091e-07
0.000208953
9.9665e-08
0.00020893
9.91524e-08
0.000208907
9.85551e-08
0.000208884
9.78812e-08
0.000208861
9.71317e-08
0.000208838
9.63136e-08
0.000208816
9.54302e-08
0.000208793
9.44872e-08
0.000208771
9.34879e-08
0.000208749
9.24369e-08
0.000208727
9.13387e-08
0.000208706
9.01966e-08
0.000208684
8.90152e-08
0.000208663
8.77988e-08
0.000208642
8.65495e-08
0.000208622
8.52726e-08
0.000208601
8.39707e-08
0.000208581
8.26467e-08
0.000208561
8.13041e-08
0.000208542
7.99466e-08
0.000208523
7.85753e-08
0.000208504
7.71945e-08
0.000208485
7.58062e-08
0.000208467
7.44122e-08
0.000208449
7.30161e-08
0.000208432
7.16186e-08
0.000208414
7.02225e-08
0.000208397
6.88296e-08
0.000208381
6.74415e-08
6.60602e-08
0.000208364
0.000175537
-1.69204e-06
0.000175816
-1.49342e-06
0.000176054
-1.35065e-06
0.00017625
-1.15829e-06
0.000176412
-9.99026e-07
0.000176545
-8.63552e-07
0.000176658
-7.526e-07
0.000176755
-6.63326e-07
0.000176841
-5.91651e-07
0.000176918
-5.33937e-07
0.000176988
-4.86905e-07
0.000177053
-4.48002e-07
0.000177113
-4.15336e-07
0.00017717
-3.87502e-07
0.000177223
-3.63465e-07
0.000177274
-3.42452e-07
0.000177322
-3.23879e-07
0.000177368
-3.07301e-07
0.000177411
-2.92372e-07
0.000177453
-2.7882e-07
0.000177494
-2.66433e-07
0.000177533
-2.55038e-07
0.00017757
-2.44498e-07
0.000177606
-2.34697e-07
0.000177641
-2.25546e-07
0.000177675
-2.16965e-07
0.000177707
-2.08892e-07
0.000177738
-2.01273e-07
0.000177769
-1.94061e-07
0.000177798
-1.87217e-07
0.000177826
-1.8071e-07
0.000177854
-1.74511e-07
0.000177881
-1.68592e-07
0.000177906
-1.62935e-07
0.000177931
-1.57519e-07
0.000177956
-1.52327e-07
0.000177979
-1.47346e-07
0.000178002
-1.4256e-07
0.000178024
-1.3796e-07
0.000178045
-1.33533e-07
0.000178066
-1.29271e-07
0.000178086
-1.25163e-07
0.000178105
-1.21204e-07
0.000178124
-1.17385e-07
0.000178143
-1.13699e-07
0.00017816
-1.10141e-07
0.000178178
-1.06705e-07
0.000178194
-1.03383e-07
0.000178211
-1.00174e-07
0.000178226
-9.70721e-08
0.000178242
-9.40712e-08
0.000178256
-9.11694e-08
0.000178271
-8.83616e-08
0.000178285
-8.56438e-08
0.000178298
-8.30142e-08
0.000178311
-8.04673e-08
0.000178324
-7.80016e-08
0.000178336
-7.56129e-08
0.000178348
-7.32983e-08
0.00017836
-7.10554e-08
0.000178371
-6.88807e-08
0.000178382
-6.67719e-08
0.000178392
-6.47243e-08
0.000178403
-6.27366e-08
0.000178413
-6.08052e-08
0.000178422
-5.89256e-08
0.000178432
-5.70962e-08
0.000178441
-5.53122e-08
0.000178449
-5.35703e-08
0.000178458
-5.18648e-08
0.000178466
-5.01935e-08
0.000178474
-4.85508e-08
0.000178482
-4.6931e-08
0.00017849
-4.53293e-08
0.000178497
-4.37397e-08
0.000178504
-4.21579e-08
0.000178511
-4.05748e-08
0.000178517
-3.89862e-08
0.000178524
-3.73843e-08
0.00017853
-3.57621e-08
0.000178536
-3.41131e-08
0.000178541
-3.24291e-08
0.000178547
-3.07047e-08
0.000178552
-2.89305e-08
0.000178557
-2.71021e-08
0.000178562
-2.52103e-08
0.000178567
-2.32509e-08
0.000178571
-2.12172e-08
0.000178575
-1.91039e-08
0.000178579
-1.69051e-08
0.000178583
-1.46185e-08
0.000178586
-1.22402e-08
0.000178589
-9.76689e-09
0.000178592
-7.19762e-09
0.000178595
-4.53036e-09
0.000178597
-1.76701e-09
0.000178599
1.09252e-09
0.000178601
4.04622e-09
0.000178602
7.09052e-09
0.000178604
1.02221e-08
0.000178605
1.34367e-08
0.000178605
1.67269e-08
0.000178605
2.0088e-08
0.000178605
2.35115e-08
0.000178605
2.699e-08
0.000178604
3.05155e-08
0.000178603
3.40777e-08
0.000178601
3.76675e-08
0.000178599
4.12756e-08
0.000178597
4.48904e-08
0.000178594
4.85021e-08
0.000178591
5.21006e-08
0.000178588
5.56746e-08
0.000178584
5.92136e-08
0.000178579
6.27065e-08
0.000178575
6.61448e-08
0.000178569
6.95175e-08
0.000178564
7.28143e-08
0.000178558
7.60279e-08
0.000178551
7.91472e-08
0.000178544
8.2167e-08
0.000178537
8.50768e-08
0.000178529
8.78719e-08
0.000178521
9.05449e-08
0.000178512
9.30901e-08
0.000178503
9.55031e-08
0.000178494
9.77789e-08
0.000178484
9.9914e-08
0.000178474
1.01907e-07
0.000178463
1.03752e-07
0.000178452
1.05452e-07
0.000178441
1.07003e-07
0.000178429
1.08405e-07
0.000178417
1.0966e-07
0.000178405
1.10767e-07
0.000178393
1.11728e-07
0.00017838
1.12545e-07
0.000178367
1.13221e-07
0.000178354
1.13757e-07
0.00017834
1.14158e-07
0.000178327
1.14426e-07
0.000178313
1.14566e-07
0.000178299
1.14582e-07
0.000178285
1.14479e-07
0.000178271
1.14259e-07
0.000178257
1.13929e-07
0.000178242
1.13493e-07
0.000178228
1.12957e-07
0.000178213
1.12325e-07
0.000178199
1.11601e-07
0.000178184
1.10793e-07
0.00017817
1.09903e-07
0.000178155
1.08938e-07
0.000178141
1.07903e-07
0.000178127
1.06802e-07
0.000178112
1.0564e-07
0.000178098
1.04423e-07
0.000178084
1.03153e-07
0.00017807
1.01836e-07
0.000178056
1.00478e-07
0.000178042
9.90801e-08
0.000178029
9.76489e-08
0.000178015
9.61862e-08
0.000178002
9.46976e-08
0.000177988
9.3186e-08
0.000177975
9.1655e-08
0.000177962
9.0107e-08
0.00017795
8.85461e-08
0.000177937
8.6975e-08
0.000177925
8.53966e-08
0.000177913
8.38134e-08
0.000177901
8.22276e-08
0.000177889
8.06426e-08
0.000177877
7.90594e-08
7.74807e-08
0.000177866
0.000149939
-1.99021e-06
0.000150165
-1.72031e-06
0.000150347
-1.53208e-06
0.000150489
-1.30023e-06
0.000150599
-1.10888e-06
0.000150685
-9.49901e-07
0.000150755
-8.22711e-07
0.000150814
-7.22549e-07
0.000150866
-6.43503e-07
0.000150913
-5.80587e-07
0.000150956
-5.29693e-07
0.000150995
-4.87789e-07
0.000151033
-4.52699e-07
0.000151068
-4.2285e-07
0.000151102
-3.97095e-07
0.000151134
-3.74586e-07
0.000151165
-3.54689e-07
0.000151194
-3.3692e-07
0.000151223
-3.20906e-07
0.00015125
-3.06354e-07
0.000151277
-2.93038e-07
0.000151303
-2.80772e-07
0.000151328
-2.69409e-07
0.000151352
-2.58831e-07
0.000151375
-2.48937e-07
0.000151398
-2.39646e-07
0.00015142
-2.30892e-07
0.000151441
-2.22618e-07
0.000151462
-2.14775e-07
0.000151482
-2.07322e-07
0.000151502
-2.00227e-07
0.00015152
-1.93457e-07
0.000151539
-1.86987e-07
0.000151557
-1.80794e-07
0.000151574
-1.74859e-07
0.000151591
-1.69163e-07
0.000151607
-1.63692e-07
0.000151623
-1.58432e-07
0.000151639
-1.5337e-07
0.000151654
-1.48495e-07
0.000151668
-1.43798e-07
0.000151682
-1.39267e-07
0.000151696
-1.34897e-07
0.000151709
-1.30679e-07
0.000151722
-1.26605e-07
0.000151735
-1.22669e-07
0.000151747
-1.18866e-07
0.000151759
-1.15189e-07
0.00015177
-1.11634e-07
0.000151781
-1.08195e-07
0.000151792
-1.04868e-07
0.000151802
-1.01648e-07
0.000151813
-9.85324e-08
0.000151822
-9.55156e-08
0.000151832
-9.25943e-08
0.000151841
-8.97656e-08
0.00015185
-8.70251e-08
0.000151859
-8.43694e-08
0.000151868
-8.17972e-08
0.000151876
-7.93024e-08
0.000151884
-7.68842e-08
0.000151892
-7.45377e-08
0.000151899
-7.2261e-08
0.000151906
-7.00504e-08
0.000151914
-6.7902e-08
0.00015192
-6.58128e-08
0.000151927
-6.37789e-08
0.000151934
-6.17975e-08
0.00015194
-5.9863e-08
0.000151946
-5.79723e-08
0.000151952
-5.61203e-08
0.000151958
-5.43022e-08
0.000151963
-5.25135e-08
0.000151969
-5.07471e-08
0.000151974
-4.89989e-08
0.000151979
-4.72623e-08
0.000151984
-4.55304e-08
0.000151989
-4.37966e-08
0.000151993
-4.20553e-08
0.000151998
-4.02981e-08
0.000152002
-3.85175e-08
0.000152007
-3.67078e-08
0.000152011
-3.48608e-08
0.000152015
-3.29686e-08
0.000152019
-3.10254e-08
0.000152023
-2.90239e-08
0.000152026
-2.6957e-08
0.00015203
-2.48198e-08
0.000152033
-2.26063e-08
0.000152037
-2.03107e-08
0.00015204
-1.79288e-08
0.000152043
-1.54588e-08
0.000152047
-1.28947e-08
0.00015205
-1.02374e-08
0.000152053
-7.48354e-09
0.000152055
-4.63385e-09
0.000152058
-1.6884e-09
0.000152061
1.35071e-09
0.000152063
4.48162e-09
0.000152066
7.7004e-09
0.000152068
1.1004e-08
0.000152071
1.43862e-08
0.000152073
1.78418e-08
0.000152075
2.13634e-08
0.000152077
2.4945e-08
0.000152079
2.85781e-08
0.000152081
3.22536e-08
0.000152083
3.5963e-08
0.000152084
3.96976e-08
0.000152086
4.34463e-08
0.000152087
4.72005e-08
0.000152088
5.09486e-08
0.000152089
5.46817e-08
0.00015209
5.83883e-08
0.000152091
6.20599e-08
0.000152091
6.56845e-08
0.000152091
6.9253e-08
0.000152091
7.27562e-08
0.000152091
7.61836e-08
0.000152091
7.9528e-08
0.00015209
8.27793e-08
0.000152089
8.59304e-08
0.000152088
8.8974e-08
0.000152087
9.19012e-08
0.000152085
9.47086e-08
0.000152083
9.7388e-08
0.000152081
9.99349e-08
0.000152079
1.02346e-07
0.000152076
1.04616e-07
0.000152073
1.06741e-07
0.00015207
1.0872e-07
0.000152066
1.10551e-07
0.000152062
1.12232e-07
0.000152058
1.13762e-07
0.000152054
1.1514e-07
0.000152049
1.16369e-07
0.000152044
1.17448e-07
0.000152039
1.18379e-07
0.000152034
1.19162e-07
0.000152028
1.19804e-07
0.000152022
1.20303e-07
0.000152016
1.20664e-07
0.00015201
1.20891e-07
0.000152003
1.20988e-07
0.000151997
1.20957e-07
0.00015199
1.20804e-07
0.000151983
1.20534e-07
0.000151976
1.20151e-07
0.000151968
1.1966e-07
0.000151961
1.19065e-07
0.000151953
1.18373e-07
0.000151946
1.17587e-07
0.000151938
1.16715e-07
0.00015193
1.15758e-07
0.000151922
1.14725e-07
0.000151914
1.13618e-07
0.000151906
1.12445e-07
0.000151898
1.1121e-07
0.00015189
1.09915e-07
0.000151882
1.08569e-07
0.000151874
1.07173e-07
0.000151866
1.05734e-07
0.000151858
1.04256e-07
0.00015185
1.02742e-07
0.000151842
1.01196e-07
0.000151834
9.96242e-08
0.000151826
9.80276e-08
0.000151818
9.64109e-08
0.00015181
9.47781e-08
0.000151802
9.31309e-08
0.000151795
9.14746e-08
0.000151787
8.98098e-08
0.000151779
8.81411e-08
0.000151772
8.64701e-08
8.48003e-08
0.000151765
0.000128071
-2.24819e-06
0.000128251
-1.90071e-06
0.000128381
-1.66219e-06
0.000128474
-1.39296e-06
0.000128538
-1.17288e-06
0.000128583
-9.9512e-07
0.000128617
-8.56679e-07
0.000128645
-7.50145e-07
0.000128669
-6.67495e-07
0.00012869
-6.02417e-07
0.000128711
-5.50117e-07
0.00012873
-5.07221e-07
0.000128749
-4.71382e-07
0.000128767
-4.40933e-07
0.000128785
-4.14672e-07
0.000128802
-3.91721e-07
0.000128818
-3.71421e-07
0.000128835
-3.53277e-07
0.000128851
-3.36904e-07
0.000128866
-3.22008e-07
0.000128882
-3.08354e-07
0.000128897
-2.95756e-07
0.000128911
-2.84066e-07
0.000128926
-2.73161e-07
0.00012894
-2.62945e-07
0.000128953
-2.53335e-07
0.000128967
-2.44264e-07
0.00012898
-2.35675e-07
0.000128993
-2.2752e-07
0.000129005
-2.19759e-07
0.000129017
-2.12358e-07
0.000129029
-2.05286e-07
0.000129041
-1.98519e-07
0.000129052
-1.92033e-07
0.000129063
-1.85808e-07
0.000129073
-1.79828e-07
0.000129084
-1.74078e-07
0.000129094
-1.68542e-07
0.000129104
-1.63211e-07
0.000129113
-1.58072e-07
0.000129123
-1.53114e-07
0.000129132
-1.4833e-07
0.000129141
-1.43711e-07
0.000129149
-1.39249e-07
0.000129157
-1.34938e-07
0.000129166
-1.3077e-07
0.000129173
-1.26739e-07
0.000129181
-1.22841e-07
0.000129189
-1.1907e-07
0.000129196
-1.15419e-07
0.000129203
-1.11887e-07
0.00012921
-1.08467e-07
0.000129216
-1.05155e-07
0.000129223
-1.01948e-07
0.000129229
-9.88415e-08
0.000129235
-9.58325e-08
0.000129241
-9.2916e-08
0.000129247
-9.00908e-08
0.000129252
-8.7351e-08
0.000129257
-8.46955e-08
0.000129263
-8.21201e-08
0.000129268
-7.96215e-08
0.000129273
-7.71967e-08
0.000129278
-7.48417e-08
0.000129282
-7.25544e-08
0.000129287
-7.03302e-08
0.000129291
-6.81661e-08
0.000129295
-6.60578e-08
0.000129299
-6.40013e-08
0.000129304
-6.1993e-08
0.000129307
-6.00278e-08
0.000129311
-5.81011e-08
0.000129315
-5.62073e-08
0.000129319
-5.43421e-08
0.000129322
-5.24995e-08
0.000129325
-5.06729e-08
0.000129329
-4.88562e-08
0.000129332
-4.70441e-08
0.000129335
-4.52283e-08
0.000129338
-4.34031e-08
0.000129341
-4.15615e-08
0.000129344
-3.96953e-08
0.000129347
-3.77988e-08
0.00012935
-3.58644e-08
0.000129353
-3.38852e-08
0.000129356
-3.18547e-08
0.000129359
-2.97665e-08
0.000129361
-2.76142e-08
0.000129364
-2.53933e-08
0.000129367
-2.30979e-08
0.00012937
-2.0724e-08
0.000129373
-1.82679e-08
0.000129375
-1.57262e-08
0.000129378
-1.3097e-08
0.000129381
-1.03784e-08
0.000129384
-7.56972e-09
0.000129387
-4.67228e-09
0.00012939
-1.68596e-09
0.000129393
1.38793e-09
0.000129396
4.54556e-09
0.0001294
7.78341e-09
0.000129403
1.10984e-08
0.000129406
1.44837e-08
0.00012941
1.79361e-08
0.000129413
2.14474e-08
0.000129417
2.50112e-08
0.00012942
2.86195e-08
0.000129424
3.22655e-08
0.000129428
3.59403e-08
0.000129432
3.96352e-08
0.000129436
4.33413e-08
0.000129439
4.70493e-08
0.000129443
5.075e-08
0.000129447
5.4434e-08
0.000129451
5.80925e-08
0.000129455
6.1715e-08
0.000129459
6.52941e-08
0.000129463
6.88191e-08
0.000129467
7.22817e-08
0.000129471
7.5674e-08
0.000129475
7.89872e-08
0.000129478
8.22136e-08
0.000129482
8.53462e-08
0.000129486
8.8378e-08
0.000129489
9.13009e-08
0.000129492
9.41116e-08
0.000129495
9.68022e-08
0.000129498
9.9369e-08
0.000129501
1.01807e-07
0.000129504
1.04112e-07
0.000129506
1.06281e-07
0.000129508
1.08312e-07
0.00012951
1.102e-07
0.000129512
1.11947e-07
0.000129514
1.13549e-07
0.000129515
1.15006e-07
0.000129516
1.16318e-07
0.000129517
1.17486e-07
0.000129518
1.18509e-07
0.000129518
1.1939e-07
0.000129519
1.20129e-07
0.000129518
1.20731e-07
0.000129518
1.21195e-07
0.000129518
1.21527e-07
0.000129517
1.21727e-07
0.000129516
1.21802e-07
0.000129515
1.21752e-07
0.000129513
1.21584e-07
0.000129512
1.21301e-07
0.00012951
1.20907e-07
0.000129508
1.20407e-07
0.000129505
1.19806e-07
0.000129503
1.19109e-07
0.000129501
1.18319e-07
0.000129498
1.17444e-07
0.000129495
1.16485e-07
0.000129492
1.1545e-07
0.000129489
1.14343e-07
0.000129486
1.13168e-07
0.000129482
1.11932e-07
0.000129479
1.10636e-07
0.000129475
1.09289e-07
0.000129472
1.07892e-07
0.000129468
1.06451e-07
0.000129464
1.04971e-07
0.00012946
1.03454e-07
0.000129456
1.01905e-07
0.000129452
1.00329e-07
0.000129448
9.87284e-08
0.000129444
9.71078e-08
0.00012944
9.54691e-08
0.000129436
9.38171e-08
0.000129432
9.2154e-08
0.000129428
9.0484e-08
8.88087e-08
0.000129424
0.000109389
-2.468e-06
0.000109527
-2.03886e-06
0.00010961
-1.74571e-06
0.000109659
-1.44133e-06
0.000109682
-1.19671e-06
0.000109693
-1.0055e-06
0.000109697
-8.60941e-07
0.000109699
-7.52295e-07
0.000109701
-6.69345e-07
0.000109703
-6.0464e-07
0.000109706
-5.52918e-07
0.00010971
-5.10624e-07
0.000109713
-4.75346e-07
0.000109718
-4.45393e-07
0.000109723
-4.19563e-07
0.000109728
-3.96975e-07
0.000109734
-3.76978e-07
0.000109739
-3.59079e-07
0.000109745
-3.42903e-07
0.000109752
-3.28158e-07
0.000109758
-3.14615e-07
0.000109764
-3.02095e-07
0.000109771
-2.90452e-07
0.000109777
-2.79568e-07
0.000109783
-2.69351e-07
0.00010979
-2.59719e-07
0.000109796
-2.50609e-07
0.000109802
-2.41967e-07
0.000109809
-2.33746e-07
0.000109815
-2.25908e-07
0.000109821
-2.18422e-07
0.000109827
-2.11256e-07
0.000109833
-2.04389e-07
0.000109838
-1.97798e-07
0.000109844
-1.91464e-07
0.00010985
-1.85373e-07
0.000109855
-1.79507e-07
0.00010986
-1.73856e-07
0.000109866
-1.68405e-07
0.000109871
-1.63148e-07
0.000109876
-1.58071e-07
0.00010988
-1.53169e-07
0.000109885
-1.4843e-07
0.00010989
-1.43851e-07
0.000109894
-1.39423e-07
0.000109899
-1.35139e-07
0.000109903
-1.30995e-07
0.000109907
-1.26984e-07
0.000109911
-1.23102e-07
0.000109915
-1.19344e-07
0.000109919
-1.15704e-07
0.000109923
-1.1218e-07
0.000109926
-1.08765e-07
0.00010993
-1.05457e-07
0.000109933
-1.02253e-07