/*--------------------------------*- C++ -*----------------------------------*\
| =========                 |                                                 |
| \\      /  F ield         | OpenFOAM: The Open Source CFD Toolbox           |
|  \\    /   O peration     | Version:  2.1.1                                 |
|   \\  /    A nd           | Web:      www.OpenFOAM.org                      |
|    \\/     M anipulation  |                                                 |
\*---------------------------------------------------------------------------*/
FoamFile
{
    version     2.0;
    format      ascii;
    class       volVectorField;
    location    "4800";
    object      U;
}
// * * * * * * * * * * * * * * * * * * * * * * * * * * * * * * * * * * * * * //

dimensions      [0 1 -1 0 0 0 0];

internalField   nonuniform List<vector> 
54800
(
(22.8997 -0.00412023 0)
(22.9411 -0.00394914 0)
(22.9779 -0.00380041 -9.47126e-30)
(23.0115 -0.00342538 -1.12255e-29)
(23.0405 -0.00312011 0)
(23.0661 -0.00283716 2.66919e-29)
(23.0886 -0.00258858 2.85244e-29)
(23.1086 -0.00237557 0)
(23.1263 -0.00219517 6.20235e-29)
(23.1423 -0.00204515 6.38656e-29)
(23.1569 -0.0019211 3.2444e-32)
(23.1701 -0.00181839 0)
(23.1824 -0.00173301 0)
(23.1937 -0.00166156 0)
(23.2043 -0.00160133 0)
(23.2142 -0.00155017 1.35961e-28)
(23.2235 -0.0015064 1.35883e-28)
(23.2324 -0.00146871 2.19072e-32)
(23.2407 -0.00143605 0)
(23.2486 -0.0014076 0)
(23.2562 -0.00138268 0)
(23.2634 -0.00136076 0)
(23.2703 -0.00134138 0)
(23.2769 -0.00132418 0)
(23.2832 -0.00130886 1.27073e-28)
(23.2892 -0.00129517 1.25281e-28)
(23.2951 -0.00128289 0)
(23.3007 -0.00127184 1.21449e-28)
(23.306 -0.00126188 1.19422e-28)
(23.3112 -0.00125286 -6.7438e-33)
(23.3162 -0.00124469 -1.15182e-28)
(23.321 -0.00123725 -1.12987e-28)
(23.3257 -0.00123048 0)
(23.3302 -0.00122429 0)
(23.3345 -0.00121862 -1.06241e-28)
(23.3387 -0.00121343 -1.03955e-28)
(23.3427 -0.00120865 -2.61854e-33)
(23.3466 -0.00120426 0)
(23.3504 -0.0012002 -2.43893e-33)
(23.354 -0.00119646 0)
(23.3576 -0.00119299 -9.24811e-29)
(23.361 -0.00118978 -9.02077e-29)
(23.3643 -0.00118679 0)
(23.3675 -0.00118401 -8.57096e-29)
(23.3706 -0.00118143 -8.34905e-29)
(23.3735 -0.00117901 -9.51581e-34)
(23.3764 -0.00117675 -7.91238e-29)
(23.3793 -0.00117464 -7.6981e-29)
(23.382 -0.00117265 -8.55021e-34)
(23.3846 -0.00117078 0)
(23.3872 -0.00116902 0)
(23.3896 -0.00116735 0)
(23.392 -0.00116576 1.33441e-28)
(23.3943 -0.00116424 1.29538e-28)
(23.3966 -0.00116278 0)
(23.3988 -0.00116137 0)
(23.4009 -0.00116 0)
(23.4029 -0.00115864 -3.06548e-34)
(23.4049 -0.00115729 0)
(23.4068 -0.00115593 -1.07624e-28)
(23.4087 -0.00115453 -2.08456e-28)
(23.4105 -0.00115306 -1.00904e-28)
(23.4122 -0.0011515 9.76541e-29)
(23.4139 -0.0011498 9.44749e-29)
(23.4155 -0.00114791 0)
(23.4171 -0.00114578 0)
(23.4187 -0.00114334 0)
(23.4202 -0.0011405 0)
(23.4216 -0.00113716 0)
(23.423 -0.0011332 -7.68218e-29)
(23.4243 -0.00112847 -1.08695e-36)
(23.4257 -0.00112279 7.14249e-29)
(23.4269 -0.00111598 0)
(23.4281 -0.0011078 6.62308e-29)
(23.4293 -0.00109798 6.37002e-29)
(23.4304 -0.00108622 0)
(23.4315 -0.00107216 0)
(23.4326 -0.00105542 -5.63216e-29)
(23.4336 -0.00103555 -5.39178e-29)
(23.4345 -0.00101207 0)
(23.4354 -0.000984445 -4.97511e-35)
(23.4363 -0.000952077 6.44181e-35)
(23.4371 -0.000914329 0)
(23.4378 -0.000870511 -4.21069e-29)
(23.4385 -0.000819886 -7.95117e-29)
(23.4391 -0.000761668 -3.73998e-29)
(23.4397 -0.000695031 0)
(23.4402 -0.000619108 3.26621e-29)
(23.4407 -0.000533004 3.02764e-29)
(23.441 -0.000435792 0)
(23.4413 -0.00032653 0)
(23.4416 -0.000204261 1.52749e-34)
(23.4417 -6.80268e-05 -1.6961e-34)
(23.4418 8.31258e-05 -1.87219e-34)
(23.4418 0.000250135 0)
(23.4417 0.000433914 2.24387e-34)
(23.4415 0.00063534 0)
(23.4412 0.000855249 0)
(23.4408 0.00109442 0)
(23.4403 0.00135358 0)
(23.4397 0.00163336 0)
(23.439 0.00193435 0)
(23.4382 0.00225702 1.82277e-34)
(23.4372 0.00260178 -1.92151e-34)
(23.4362 0.00296891 0)
(23.435 0.00335862 0)
(23.4337 0.003771 0)
(23.4323 0.00420604 0)
(23.4308 0.00466364 2.37027e-34)
(23.4292 0.00514358 1.83109e-29)
(23.4275 0.00564554 2.01079e-29)
(23.4256 0.00616912 0)
(23.4236 0.00671379 -2.34189e-29)
(23.4216 0.00727897 -2.49251e-29)
(23.4194 0.00786397 -2.63276e-29)
(23.4171 0.00846803 -2.76242e-29)
(23.4147 0.00909033 -1.4098e-34)
(23.4122 0.00972997 0)
(23.4096 0.010386 0)
(23.4069 0.0110574 -1.44038e-34)
(23.4041 0.0117432 0)
(23.4013 0.0124423 -1.44444e-34)
(23.3983 0.0131535 0)
(23.3953 0.0138759 -1.43622e-34)
(23.3922 0.0146082 -3.44507e-29)
(23.389 0.0153493 3.15847e-35)
(23.3858 0.0160981 3.4849e-29)
(23.3825 0.0168534 0)
(23.3792 0.0176143 0)
(23.3758 0.0183795 0)
(23.3724 0.0191481 -3.4622e-29)
(23.3689 0.0199189 -3.43779e-29)
(23.3655 0.020691 0)
(23.3619 0.0214635 0)
(23.3584 0.0222353 0)
(23.3548 0.0230056 0)
(23.3513 0.0237736 -2.91397e-35)
(23.3477 0.0245383 -3.17076e-29)
(23.3441 0.0252992 -3.11057e-29)
(23.3405 0.0260554 3.04711e-29)
(23.3369 0.0268062 2.9808e-29)
(23.3333 0.0275511 2.52598e-35)
(23.3298 0.0282894 2.44678e-35)
(23.3262 0.0290205 -2.36769e-35)
(23.3227 0.029744 0)
(23.3192 0.0304594 2.21079e-35)
(23.3157 0.0311663 0)
(23.3122 0.0318642 -1.02846e-35)
(23.3088 0.0325529 0)
(23.3053 0.0332319 2.31604e-29)
(23.302 0.0339011 -7.55743e-36)
(23.2986 0.0345602 -2.16493e-29)
(23.2953 0.0352089 2.09033e-29)
(23.292 0.0358471 4.03317e-29)
(23.2888 0.0364745 1.94386e-29)
(23.2856 0.0370912 -1.87228e-29)
(23.2825 0.0376969 -1.80196e-29)
(23.2794 0.0382916 -1.73302e-29)
(23.2763 0.0388753 -1.66553e-29)
(23.2733 0.0394478 1.59958e-29)
(23.2704 0.0400092 1.53523e-29)
(23.2674 0.0405595 1.47252e-29)
(23.2646 0.0410986 2.82303e-29)
(23.2618 0.0416267 1.35223e-29)
(23.259 0.0421438 1.29468e-29)
(23.2563 0.0426499 1.2389e-29)
(23.2536 0.0431452 -1.18489e-29)
(23.251 0.0436297 -2.2653e-29)
(23.2484 0.0441035 -1.08216e-29)
(23.2459 0.0445668 1.03344e-29)
(23.2434 0.0450196 9.86468e-30)
(23.241 0.0454622 -9.41193e-30)
(23.2386 0.0458946 -8.97239e-30)
(23.2363 0.0463171 0)
(23.234 0.0467298 -9.35792e-37)
(22.9003 -0.0118458 0)
(22.9419 -0.0112507 -1.37568e-29)
(22.9778 -0.0107735 -1.52477e-29)
(23.0107 -0.00968159 -3.85085e-29)
(23.0385 -0.00878205 -4.17631e-29)
(23.0628 -0.0079566 -2.36667e-31)
(23.0841 -0.00723731 -9.76738e-29)
(23.1027 -0.00662646 -1.02883e-28)
(23.1193 -0.00611423 1.06774e-28)
(23.1341 -0.00569169 1.10076e-28)
(23.1476 -0.00534447 7.59257e-32)
(23.1599 -0.00505839 -1.42676e-31)
(23.1712 -0.00482142 -1.16465e-28)
(23.1818 -0.00462368 1.04504e-33)
(23.1916 -0.00445735 -9.44925e-34)
(23.2008 -0.00431636 -1.19291e-28)
(23.2095 -0.00419596 0)
(23.2178 -0.00409246 -2.39398e-28)
(23.2256 -0.00400292 1.28285e-33)
(23.233 -0.00392502 4.76475e-28)
(23.2401 -0.0038569 2.37096e-28)
(23.2468 -0.00379705 0)
(23.2533 -0.00374422 -2.33824e-28)
(23.2595 -0.0036974 -2.31797e-28)
(23.2654 -0.00365576 0)
(23.2711 -0.00361859 -1.96587e-32)
(23.2766 -0.00358529 3.79825e-32)
(23.2819 -0.00355538 0)
(23.2869 -0.00352843 5.32086e-32)
(23.2918 -0.00350408 -2.14939e-28)
(23.2965 -0.00348201 -2.11588e-28)
(23.3011 -0.00346198 1.604e-32)
(23.3055 -0.00344374 -2.04559e-28)
(23.3097 -0.00342711 3.15116e-34)
(23.3138 -0.0034119 1.97234e-28)
(23.3178 -0.00339797 1.40546e-32)
(23.3216 -0.00338518 1.89644e-28)
(23.3253 -0.00337342 1.8582e-28)
(23.3289 -0.00336258 -6.36645e-33)
(23.3324 -0.00335258 1.78032e-28)
(23.3357 -0.00334334 3.48298e-28)
(23.339 -0.00333478 1.70249e-28)
(23.3421 -0.00332684 -1.66336e-28)
(23.3452 -0.00331947 -1.62438e-28)
(23.3481 -0.00331261 -5.22444e-33)
(23.351 -0.00330622 3.0942e-28)
(23.3537 -0.00330026 -1.77495e-34)
(23.3564 -0.00329468 -2.94156e-28)
(23.359 -0.00328946 -2.86615e-28)
(23.3615 -0.00328457 1.30714e-34)
(23.3639 -0.00327997 5.43543e-28)
(23.3663 -0.00327564 2.6448e-28)
(23.3686 -0.00327155 1.99537e-33)
(23.3708 -0.00326768 0)
(23.3729 -0.00326399 0)
(23.375 -0.00326047 2.3629e-28)
(23.377 -0.00325709 4.59016e-28)
(23.379 -0.0032538 4.45674e-28)
(23.3809 -0.00325058 4.32564e-28)
(23.3827 -0.00324739 4.19688e-28)
(23.3845 -0.00324416 2.03522e-28)
(23.3862 -0.00324085 7.1772e-34)
(23.3879 -0.00323736 0)
(23.3895 -0.00323362 -6.58601e-34)
(23.391 -0.00322949 0)
(23.3926 -0.00322485 -1.73696e-28)
(23.394 -0.00321951 -1.68082e-28)
(23.3955 -0.00321326 -5.29359e-34)
(23.3968 -0.00320585 0)
(23.3982 -0.00319696 0)
(23.3995 -0.00318622 0)
(23.4007 -0.0031732 -1.41643e-28)
(23.4019 -0.00315738 -1.36652e-28)
(23.4031 -0.00313816 0)
(23.4042 -0.00311485 -8.76334e-35)
(23.4053 -0.00308664 -1.22182e-28)
(23.4064 -0.00305264 -2.35006e-28)
(23.4074 -0.00301181 -2.2577e-28)
(23.4083 -0.002963 -9.27994e-35)
(23.4093 -0.00290493 1.038e-28)
(23.4101 -0.00283619 1.13728e-34)
(23.411 -0.00275523 -9.48676e-29)
(23.4118 -0.00266035 -9.044e-29)
(23.4125 -0.00254974 -2.41109e-34)
(23.4132 -0.00242143 -8.16268e-29)
(23.4138 -0.00227335 -2.25292e-34)
(23.4144 -0.00210329 2.49041e-34)
(23.415 -0.00190896 -6.84256e-29)
(23.4155 -0.00168795 6.4012e-29)
(23.4159 -0.00143778 1.19175e-28)
(23.4162 -0.00115592 5.51509e-29)
(23.4165 -0.000839799 3.95107e-34)
(23.4168 -0.00048681 4.62381e-29)
(23.4169 -9.4365e-05 -5.53999e-35)
(23.417 0.000340103 -7.45836e-29)
(23.417 0.000819105 -6.56255e-29)
(23.417 0.00134508 -2.83387e-29)
(23.4168 0.00192035 0)
(23.4166 0.00254714 0)
(23.4163 0.00322748 1.50114e-29)
(23.4159 0.00396327 5.98043e-34)
(23.4154 0.00475619 -6.29548e-30)
(23.4148 0.0056077 2.01733e-30)
(23.4141 0.00651904 1.163e-33)
(23.4133 0.00749121 6.3238e-30)
(23.4124 0.00852494 0)
(23.4114 0.0096207 0)
(23.4104 0.0107787 0)
(23.4092 0.0119988 6.42086e-34)
(23.4079 0.0132806 -6.64486e-34)
(23.4065 0.0146236 0)
(23.405 0.0160269 3.21135e-29)
(23.4034 0.0174891 3.52302e-29)
(23.4017 0.019009 0)
(23.4 0.0205849 -7.53989e-34)
(23.3981 0.0222148 -3.83404e-34)
(23.3961 0.0238968 -3.88906e-34)
(23.394 0.0256285 4.82042e-29)
(23.3919 0.0274074 1.0049e-28)
(23.3897 0.029231 5.20965e-29)
(23.3873 0.0310966 0)
(23.3849 0.0330012 4.02671e-34)
(23.3825 0.034942 -4.02739e-34)
(23.3799 0.036916 5.76267e-29)
(23.3773 0.0389202 5.85502e-29)
(23.3746 0.0409513 5.92987e-29)
(23.3719 0.0430064 5.98751e-29)
(23.3691 0.0450824 3.91123e-34)
(23.3662 0.0471762 3.86677e-34)
(23.3633 0.0492848 0)
(23.3603 0.0514053 6.06024e-29)
(23.3574 0.0535346 1.20848e-28)
(23.3543 0.0556699 6.01163e-29)
(23.3513 0.0578086 0)
(23.3482 0.059948 1.74474e-34)
(23.3451 0.0620854 -5.85036e-29)
(23.342 0.0642185 -5.77625e-29)
(23.3388 0.0663448 8.12706e-35)
(23.3357 0.0684622 0)
(23.3325 0.0705686 1.54067e-34)
(23.3293 0.0726619 -1.49732e-34)
(23.3262 0.0747402 2.18034e-34)
(23.323 0.0768019 7.04777e-35)
(23.3198 0.0788453 6.82739e-35)
(23.3167 0.0808688 0)
(23.3136 0.0828711 4.8075e-29)
(23.3104 0.0848508 9.35884e-29)
(23.3073 0.0868068 4.54957e-29)
(23.3042 0.088738 0)
(23.3012 0.0906434 -4.28666e-29)
(23.2982 0.0925221 -4.1545e-29)
(23.2951 0.0943735 0)
(23.2922 0.0961967 3.89099e-29)
(23.2892 0.0979912 7.52068e-29)
(23.2863 0.0997565 3.63088e-29)
(23.2834 0.101492 0)
(23.2806 0.103198 0)
(23.2777 0.104873 -3.25246e-29)
(23.275 0.106518 -3.13039e-29)
(23.2722 0.108132 3.0107e-29)
(23.2695 0.109715 2.89352e-29)
(23.2669 0.111268 8.36836e-36)
(23.2643 0.112789 -2.66725e-29)
(23.2617 0.11428 2.54559e-35)
(23.2592 0.11574 4.90478e-29)
(23.2567 0.11717 2.34941e-29)
(23.2542 0.118569 2.24946e-29)
(23.2518 0.119938 2.15256e-29)
(23.2495 0.121278 -2.05873e-29)
(23.2472 0.122588 -1.96797e-29)
(23.2449 0.123868 5.45456e-36)
(23.2427 0.12512 1.79568e-29)
(23.2405 0.126344 1.7133e-29)
(23.2384 0.127539 0)
(23.2363 0.128707 -2.74726e-36)
(22.9013 -0.0186058 0)
(22.9432 -0.0174189 -2.25468e-31)
(22.9776 -0.0165425 8.86383e-31)
(23.0087 -0.0147894 0)
(23.0345 -0.0133249 6.42214e-31)
(23.0566 -0.012002 -7.86368e-29)
(23.0755 -0.0108652 -8.31098e-29)
(23.0919 -0.00991439 1.20407e-35)
(23.1063 -0.00912935 2.08329e-31)
(23.1193 -0.0084897 0)
(23.1309 -0.00796899 -9.61399e-29)
(23.1416 -0.007543 -9.87052e-29)
(23.1515 -0.00719204 -1.64889e-31)
(23.1607 -0.0069004 0)
(23.1693 -0.00665597 0)
(23.1774 -0.0064494 -2.06827e-28)
(23.185 -0.00627352 2.98307e-33)
(23.1923 -0.00612273 4.17188e-28)
(23.1992 -0.00599262 2.08972e-28)
(23.2057 -0.00587972 0)
(23.212 -0.00578123 -2.08673e-28)
(23.218 -0.0056949 1.90035e-33)
(23.2238 -0.00561889 4.13958e-28)
(23.2293 -0.00555168 2.0566e-28)
(23.2346 -0.00549204 2.04332e-28)
(23.2397 -0.00543892 2.02626e-28)
(23.2446 -0.00539145 1.00746e-31)
(23.2494 -0.0053489 0)
(23.254 -0.00531064 9.49255e-32)
(23.2584 -0.00527615 1.94238e-28)
(23.2626 -0.00524498 -8.45707e-34)
(23.2668 -0.00521673 -1.89117e-28)
(23.2707 -0.00519107 0)
(23.2746 -0.00516771 1.83692e-28)
(23.2783 -0.0051464 1.8087e-28)
(23.2819 -0.00512692 1.93298e-32)
(23.2854 -0.00510907 0)
(23.2888 -0.00509269 1.8229e-32)
(23.292 -0.00507764 0)
(23.2952 -0.00506377 3.3087e-28)
(23.2982 -0.00505097 3.24489e-28)
(23.3012 -0.00503915 3.18021e-28)
(23.3041 -0.0050282 3.11511e-28)
(23.3069 -0.00501806 3.04965e-28)
(23.3096 -0.00500863 5.96782e-28)
(23.3122 -0.00499987 5.83689e-28)
(23.3147 -0.00499172 2.85277e-28)
(23.3171 -0.00498411 5.98426e-37)
(23.3195 -0.004977 0)
(23.3218 -0.00497034 -6.35118e-33)
(23.3241 -0.0049641 -2.59273e-28)
(23.3262 -0.00495824 2.19772e-34)
(23.3283 -0.00495272 2.46513e-28)
(23.3303 -0.00494751 -2.40203e-28)
(23.3323 -0.00494256 -4.67944e-28)
(23.3342 -0.00493785 -2.27804e-28)
(23.3361 -0.00493334 2.21708e-28)
(23.3379 -0.00492897 -1.12695e-34)
(23.3396 -0.00492472 -4.19504e-28)
(23.3413 -0.0049205 -2.03898e-28)
(23.3429 -0.00491627 -1.98127e-28)
(23.3445 -0.00491192 -1.92447e-28)
(23.3461 -0.00490737 1.86857e-28)
(23.3476 -0.00490248 1.8136e-28)
(23.349 -0.00489709 1.75953e-28)
(23.3504 -0.004891 1.70647e-28)
(23.3518 -0.00488399 8.52374e-34)
(23.3531 -0.00487576 8.04473e-34)
(23.3544 -0.00486595 -1.50577e-33)
(23.3556 -0.00485414 -1.50332e-28)
(23.3568 -0.00483982 -1.45481e-28)
(23.358 -0.00482239 -5.68395e-34)
(23.3591 -0.00480113 4.93276e-34)
(23.3602 -0.00477523 0)
(23.3612 -0.00474372 -1.26924e-28)
(23.3622 -0.0047055 -1.22479e-28)
(23.3632 -0.00465932 8.84989e-35)
(23.3642 -0.00460376 -4.66324e-35)
(23.3651 -0.00453722 0)
(23.3659 -0.00445793 -3.69387e-34)
(23.3668 -0.00436393 2.80252e-34)
(23.3676 -0.00425307 0)
(23.3683 -0.00412299 5.05119e-34)
(23.3691 -0.00397116 0)
(23.3698 -0.00379486 7.801e-34)
(23.3704 -0.00359118 8.10769e-29)
(23.371 -0.00335704 7.71344e-29)
(23.3716 -0.00308922 0)
(23.3721 -0.00278433 0)
(23.3726 -0.00243889 6.54095e-29)
(23.373 -0.0020493 6.15268e-29)
(23.3734 -0.00161191 -2.19023e-33)
(23.3737 -0.001123 -1.22465e-33)
(23.374 -0.00057886 -4.99329e-29)
(23.3742 2.42262e-05 -4.60905e-29)
(23.3744 0.000689912 0)
(23.3745 0.00142177 0)
(23.3746 0.00222327 0)
(23.3746 0.0030977 0)
(23.3745 0.00404819 0)
(23.3744 0.00507766 2.45361e-33)
(23.3742 0.00618875 1.96702e-29)
(23.3739 0.00738387 1.60191e-29)
(23.3736 0.00866508 1.47775e-33)
(23.3732 0.0100342 0)
(23.3727 0.0114925 1.64158e-33)
(23.3722 0.0130413 -1.72102e-33)
(23.3715 0.014681 0)
(23.3708 0.0164121 -4.67652e-30)
(23.3701 0.0182344 -7.85577e-30)
(23.3692 0.0201475 1.09429e-29)
(23.3683 0.0221506 1.39248e-29)
(23.3673 0.0242422 -1.68014e-29)
(23.3662 0.026421 -1.95603e-29)
(23.365 0.0286848 -1.12008e-33)
(23.3638 0.0310315 0)
(23.3625 0.0334582 -1.16268e-33)
(23.3611 0.0359622 2.93533e-29)
(23.3596 0.0385401 -2.66578e-33)
(23.3581 0.0411886 1.43631e-33)
(23.3564 0.0439039 -2.62448e-33)
(23.3548 0.046682 -3.69487e-29)
(23.353 0.0495191 6.13082e-34)
(23.3512 0.0524107 6.13696e-34)
(23.3493 0.0553527 1.83912e-33)
(23.3474 0.0583405 6.11157e-34)
(23.3454 0.0613698 0)
(23.3434 0.064436 1.20781e-33)
(23.3413 0.0675345 -4.47174e-29)
(23.3391 0.0706609 4.4624e-34)
(23.3369 0.0738108 -1.57873e-33)
(23.3347 0.0769797 -9.20025e-29)
(23.3324 0.0801632 9.08108e-34)
(23.3301 0.0833573 4.62519e-29)
(23.3277 0.0865577 -2.74164e-34)
(23.3253 0.0897604 -4.60687e-29)
(23.3229 0.0929617 -4.58267e-29)
(23.3205 0.0961577 0)
(23.318 0.099345 4.50784e-29)
(23.3156 0.10252 4.45823e-29)
(23.3131 0.10568 -4.40143e-29)
(23.3106 0.108821 7.93209e-34)
(23.3081 0.111942 -5.28916e-34)
(23.3056 0.115038 -4.19345e-29)
(23.3031 0.118107 0)
(23.3005 0.121148 0)
(23.298 0.124158 -1.98405e-34)
(23.2955 0.127135 3.85082e-29)
(23.293 0.130076 -1.76477e-34)
(23.2905 0.132982 -7.3222e-29)
(23.2881 0.135849 4.89582e-34)
(23.2856 0.138677 6.92855e-29)
(23.2831 0.141464 3.36422e-29)
(23.2807 0.144209 3.26364e-29)
(23.2783 0.146911 3.16277e-29)
(23.2759 0.14957 0)
(23.2735 0.152185 0)
(23.2712 0.154755 0)
(23.2689 0.157279 2.76328e-29)
(23.2666 0.159758 5.3313e-29)
(23.2643 0.162191 2.56935e-29)
(23.2621 0.164577 0)
(23.2599 0.166918 0)
(23.2577 0.169212 -2.50218e-35)
(23.2556 0.17146 0)
(23.2535 0.173662 -2.2815e-35)
(23.2514 0.175818 -2.0283e-29)
(23.2494 0.177928 -1.94526e-29)
(23.2474 0.179993 1.86448e-29)
(23.2454 0.182013 -8.72662e-35)
(23.2435 0.183989 -1.70987e-29)
(23.2416 0.185921 -1.67499e-41)
(23.2397 0.18781 8.14109e-36)
(23.2379 0.189655 1.49246e-29)
(23.2361 0.191459 -5.50901e-35)
(22.9024 -0.0245437 -3.83191e-30)
(22.9445 -0.0225711 3.01599e-31)
(22.9767 -0.0211965 -2.38474e-29)
(23.0053 -0.0188133 -2.91894e-29)
(23.0281 -0.0168023 1.23027e-30)
(23.0469 -0.0150213 -3.45091e-29)
(23.0626 -0.0135202 -1.09552e-28)
(23.076 -0.0122896 -1.5225e-28)
(23.0877 -0.0112928 -1.58499e-28)
(23.0981 -0.0104924 -8.17073e-29)
(23.1075 -0.00984794 7.18313e-31)
(23.1161 -0.00932497 -3.43834e-31)
(23.1241 -0.00889673 -1.653e-31)
(23.1315 -0.00854265 0)
(23.1386 -0.00824715 1.79037e-28)
(23.1452 -0.0079984 1.80757e-28)
(23.1515 -0.00778737 1.82109e-28)
(23.1575 -0.00760708 1.83107e-28)
(23.1632 -0.00745204 1.36608e-31)
(23.1687 -0.00731795 1.84044e-28)
(23.174 -0.00720136 3.6857e-28)
(23.179 -0.00709949 1.23379e-31)
(23.1839 -0.00701007 -1.83631e-28)
(23.1886 -0.00693127 1.19579e-31)
(23.1931 -0.00686155 1.74853e-31)
(23.1974 -0.00679965 5.68295e-32)
(23.2016 -0.0067445 5.54173e-32)
(23.2057 -0.00669522 -1.78753e-28)
(23.2096 -0.00665105 1.06835e-31)
(23.2134 -0.00661134 5.01329e-32)
(23.2171 -0.00657556 5.13292e-32)
(23.2207 -0.00654324 1.71997e-28)
(23.2241 -0.00651396 -1.69992e-28)
(23.2275 -0.00648739 -1.67929e-28)
(23.2307 -0.00646321 4.5365e-32)
(23.2338 -0.00644118 0)
(23.2369 -0.00642105 -4.31215e-32)
(23.2398 -0.00640263 0)
(23.2426 -0.00638574 -3.12185e-28)
(23.2454 -0.00637023 -3.07102e-28)
(23.2481 -0.00635595 -3.01904e-28)
(23.2507 -0.0063428 -2.96619e-28)
(23.2532 -0.00633065 -2.91244e-28)
(23.2556 -0.00631942 -5.71667e-28)
(23.258 -0.00630902 -5.60762e-28)
(23.2603 -0.00629937 -2.74861e-28)
(23.2625 -0.00629041 2.69312e-28)
(23.2647 -0.00628207 2.63764e-28)
(23.2668 -0.00627429 -2.5818e-28)
(23.2688 -0.00626703 -5.05204e-28)
(23.2708 -0.00626024 3.46291e-34)
(23.2727 -0.00625388 2.41452e-28)
(23.2746 -0.0062479 2.35901e-28)
(23.2764 -0.00624227 6.54057e-33)
(23.2781 -0.00623693 -2.24869e-28)
(23.2798 -0.00623187 6.40035e-33)
(23.2814 -0.00622702 6.2095e-33)
(23.283 -0.00622234 3.01053e-33)
(23.2846 -0.00621778 5.83527e-33)
(23.2861 -0.00621328 -2.82528e-33)
(23.2875 -0.00620875 -1.92805e-28)
(23.2889 -0.0062041 -1.87649e-28)
(23.2903 -0.00619921 0)
(23.2916 -0.00619395 0)
(23.2929 -0.00618813 -2.35853e-33)
(23.2942 -0.00618153 2.25881e-33)
(23.2954 -0.00617389 0)
(23.2965 -0.00616487 2.04397e-33)
(23.2977 -0.00615408 8.90942e-38)
(23.2988 -0.00614103 -1.4894e-28)
(23.2999 -0.00612515 7.82641e-34)
(23.3009 -0.00610576 1.40013e-28)
(23.3019 -0.00608206 -1.35664e-28)
(23.3029 -0.0060531 -1.31392e-28)
(23.3038 -0.0060178 4.60422e-34)
(23.3047 -0.0059749 0)
(23.3056 -0.005923 -1.19023e-28)
(23.3065 -0.00586047 -2.07196e-34)
(23.3073 -0.0057855 2.96972e-34)
(23.3081 -0.00569608 -1.07294e-28)
(23.3089 -0.00558998 0)
(23.3096 -0.00546473 9.98011e-29)
(23.3103 -0.00531767 9.61492e-29)
(23.311 -0.0051459 -9.25523e-29)
(23.3117 -0.0049463 -8.90124e-29)
(23.3123 -0.00471554 8.55251e-29)
(23.3129 -0.0044501 8.20862e-29)
(23.3135 -0.00414626 -7.86971e-29)
(23.314 -0.00380013 -7.53524e-29)
(23.3146 -0.00340769 1.94124e-33)
(23.315 -0.00296477 0)
(23.3155 -0.0024671 6.55723e-29)
(23.3159 -0.00191036 4.1612e-33)
(23.3163 -0.00129017 1.19655e-34)
(23.3167 -0.000602161 1.12256e-28)
(23.317 0.000158021 5.30507e-29)
(23.3173 0.00099466 -5.00009e-29)
(23.3176 0.00191194 -4.69857e-29)
(23.3178 0.0029139 -4.39977e-29)
(23.318 0.00400441 -4.10443e-29)
(23.3182 0.00518714 3.81177e-29)
(23.3183 0.0064655 5.24151e-33)
(23.3184 0.00784262 -3.23643e-29)
(23.3184 0.00932133 2.95326e-29)
(23.3184 0.0109041 2.67388e-29)
(23.3184 0.0125931 1.96373e-33)
(23.3183 0.0143901 -2.12551e-29)
(23.3182 0.0162964 -1.85676e-29)
(23.318 0.0183129 -1.59225e-29)
(23.3178 0.0204401 -1.33215e-29)
(23.3175 0.0226782 0)
(23.3172 0.0250266 0)
(23.3168 0.0274845 0)
(23.3164 0.0300508 2.69294e-33)
(23.3159 0.0327237 0)
(23.3154 0.0355011 0)
(23.3148 0.0383805 -1.4454e-33)
(23.3142 0.0413589 0)
(23.3135 0.0444332 -1.49613e-33)
(23.3128 0.0475997 -1.51664e-33)
(23.312 0.0508545 -3.06771e-33)
(23.3112 0.0541933 1.54773e-33)
(23.3103 0.0576118 1.50472e-29)
(23.3093 0.0611051 1.66832e-29)
(23.3083 0.0646685 3.13904e-33)
(23.3073 0.0682968 1.96819e-29)
(23.3062 0.0719848 2.10361e-29)
(23.305 0.0757272 7.8132e-34)
(23.3038 0.0795186 7.77198e-34)
(23.3026 0.0833536 -7.71688e-34)
(23.3013 0.0872267 -7.6486e-34)
(23.3 0.0911326 -2.63264e-29)
(23.2986 0.0950657 -5.41726e-29)
(23.2972 0.0990209 -2.77493e-29)
(23.2957 0.102993 -2.83201e-29)
(23.2942 0.106976 1.36375e-33)
(23.2927 0.110967 2.91783e-29)
(23.2911 0.114958 0)
(23.2895 0.118947 2.96891e-29)
(23.2879 0.122929 5.96394e-29)
(23.2862 0.126899 2.98731e-29)
(23.2846 0.130852 -3.12851e-34)
(23.2829 0.134786 0)
(23.2812 0.138697 2.96389e-34)
(23.2794 0.14258 -2.93916e-29)
(23.2777 0.146432 -2.9117e-29)
(23.2759 0.150251 1.2228e-40)
(23.2742 0.154034 0)
(23.2724 0.157777 -1.19272e-40)
(23.2706 0.161478 0)
(23.2688 0.165136 1.1855e-34)
(23.2671 0.168747 -2.65144e-29)
(23.2653 0.172311 -2.59586e-29)
(23.2635 0.175825 0)
(23.2617 0.179288 -2.04492e-34)
(23.2599 0.182699 0)
(23.2582 0.186055 0)
(23.2564 0.189358 9.07569e-35)
(23.2547 0.192604 2.22353e-29)
(23.253 0.195795 2.15784e-29)
(23.2512 0.198929 -2.0919e-29)
(23.2495 0.202005 2.65061e-34)
(23.2478 0.205024 3.91987e-29)
(23.2462 0.207985 3.78874e-29)
(23.2445 0.210888 -1.77741e-34)
(23.2429 0.213733 -1.76491e-29)
(23.2413 0.216521 0)
(23.2397 0.219251 -2.92564e-35)
(23.2381 0.221924 -1.57714e-29)
(23.2366 0.22454 -3.03347e-29)
(23.235 0.227099 1.33611e-34)
(23.2335 0.229603 -1.58629e-34)
(23.232 0.232052 -1.34255e-29)
(23.2306 0.234446 0)
(23.2291 0.236786 1.27876e-35)
(22.9035 -0.0297559 -4.06605e-30)
(22.9457 -0.0268169 -2.0171e-36)
(22.9748 -0.0248333 -1.06825e-29)
(22.9999 -0.0218363 -1.29778e-29)
(23.0186 -0.0192977 2.84434e-29)
(23.0332 -0.0171029 3.07531e-29)
(23.0449 -0.0152972 3.19547e-29)
(23.0546 -0.0138519 3.36676e-29)
(23.0629 -0.0127055 -3.40316e-31)
(23.0703 -0.0117993 3.26401e-31)
(23.077 -0.0110778 3.15478e-31)
(23.0833 -0.0104971 -3.06321e-31)
(23.0891 -0.0100248 -7.68014e-29)
(23.0946 -0.00963627 -7.73936e-29)
(23.0998 -0.00931358 0)
(23.1047 -0.00904317 0)
(23.1095 -0.00881473 0)
(23.1141 -0.00862036 -1.61658e-28)
(23.1184 -0.00845389 -1.62273e-28)
(23.1227 -0.00831049 -1.63303e-28)
(23.1268 -0.00818629 -1.63458e-28)
(23.1307 -0.00807818 1.2262e-31)
(23.1345 -0.00798367 -1.63783e-28)
(23.1383 -0.00790069 -1.6359e-28)
(23.1418 -0.00782756 1.15494e-31)
(23.1453 -0.00776288 1.62858e-28)
(23.1487 -0.00770547 -1.89326e-33)
(23.152 -0.00765437 -1.61044e-28)
(23.1551 -0.00760873 1.60281e-28)
(23.1582 -0.00756787 -1.46933e-33)
(23.1612 -0.00753118 -1.57777e-28)
(23.1641 -0.00749815 -5.01344e-32)
(23.1669 -0.00746835 -4.91055e-32)
(23.1697 -0.0074414 -4.80875e-32)
(23.1723 -0.00741698 -1.51818e-28)
(23.1749 -0.00739479 -1.5008e-28)
(23.1774 -0.00737459 -9.02067e-32)
(23.1799 -0.00735617 -1.46372e-28)
(23.1822 -0.00733934 -2.88801e-28)
(23.1845 -0.00732393 -2.84778e-28)
(23.1867 -0.0073098 5.44284e-34)
(23.1889 -0.00729682 1.38179e-28)
(23.191 -0.00728487 0)
(23.193 -0.00727385 1.92575e-32)
(23.195 -0.00726368 0)
(23.1969 -0.00725427 -1.83645e-32)
(23.1988 -0.00724556 0)
(23.2006 -0.00723747 -1.24587e-28)
(23.2024 -0.00722995 -2.44475e-28)
(23.2041 -0.00722294 -1.19856e-28)
(23.2057 -0.00721641 2.34941e-28)
(23.2073 -0.0072103 2.30154e-28)
(23.2089 -0.00720457 7.70534e-33)
(23.2104 -0.00719918 0)
(23.2119 -0.00719409 -2.15753e-28)
(23.2133 -0.00718926 -2.10964e-28)
(23.2147 -0.00718464 -7.77766e-38)
(23.216 -0.00718019 0)
(23.2173 -0.00717585 -7.46853e-38)
(23.2186 -0.00717156 0)
(23.2198 -0.00716723 -3.0799e-33)
(23.221 -0.00716277 -3.42249e-38)
(23.2222 -0.00715807 -2.88916e-33)
(23.2233 -0.00715297 1.73577e-28)
(23.2244 -0.0071473 1.69079e-28)
(23.2254 -0.00714083 -2.58776e-33)
(23.2265 -0.00713329 0)
(23.2275 -0.00712433 0)
(23.2284 -0.00711356 1.51648e-28)
(23.2294 -0.00710047 2.94875e-28)
(23.2303 -0.00708449 6.83306e-35)
(23.2312 -0.0070649 -9.32471e-35)
(23.232 -0.00704089 9.32138e-34)
(23.2328 -0.0070115 -1.3127e-28)
(23.2336 -0.0069756 0)
(23.2344 -0.00693193 4.72103e-34)
(23.2352 -0.00687901 -1.19895e-28)
(23.2359 -0.00681519 -3.2014e-34)
(23.2367 -0.00673861 1.12691e-28)
(23.2374 -0.0066472 1.09205e-28)
(23.238 -0.00653866 2.11597e-28)
(23.2387 -0.00641047 -1.29714e-34)
(23.2393 -0.00625986 -9.92229e-29)
(23.24 -0.00608385 6.52163e-34)
(23.2406 -0.00587922 -9.29648e-29)
(23.2412 -0.00564254 -8.99546e-29)
(23.2417 -0.00537015 0)
(23.2423 -0.0050582 0)
(23.2428 -0.00470264 8.13918e-29)
(23.2434 -0.00429928 7.86909e-29)
(23.2439 -0.00384376 0)
(23.2444 -0.00333162 3.52962e-39)
(23.2449 -0.00275831 2.90493e-33)
(23.2454 -0.0021192 4.87899e-33)
(23.2459 -0.00140964 -1.80949e-33)
(23.2463 -0.000624988 -6.39355e-29)
(23.2468 0.000239363 -6.17002e-29)
(23.2472 0.00118795 -2.40989e-33)
(23.2477 0.00222521 2.62489e-33)
(23.2481 0.00335542 -5.52811e-29)
(23.2485 0.0045827 -5.32408e-29)
(23.2489 0.00591093 -5.12207e-29)
(23.2493 0.00734378 -4.9253e-29)
(23.2497 0.00888462 3.77347e-33)
(23.2501 0.0105365 -4.53755e-29)
(23.2505 0.0123022 -1.00743e-33)
(23.2508 0.0141841 4.15887e-29)
(23.2511 0.0161841 3.97178e-29)
(23.2515 0.018304 3.31417e-33)
(23.2518 0.0205448 -7.67289e-34)
(23.2521 0.0229073 3.41702e-29)
(23.2523 0.0253919 0)
(23.2526 0.0279984 0)
(23.2528 0.0307262 3.91685e-40)
(23.253 0.0335744 -2.68274e-29)
(23.2532 0.0365415 -3.41546e-33)
(23.2534 0.0396255 2.31731e-29)
(23.2535 0.0428241 0)
(23.2536 0.0461347 1.95367e-29)
(23.2537 0.0495541 -1.77873e-34)
(23.2538 0.0530788 -4.99372e-33)
(23.2538 0.0567048 1.41756e-29)
(23.2537 0.0604281 1.24143e-29)
(23.2537 0.0642441 3.04645e-33)
(23.2536 0.068148 -8.97971e-30)
(23.2535 0.0721348 -6.8823e-41)
(23.2533 0.0761992 0)
(23.2531 0.0803357 0)
(23.2529 0.0845388 2.53318e-30)
(23.2526 0.0888028 2.55694e-33)
(23.2523 0.0931216 4.11459e-31)
(23.2519 0.0974896 0)
(23.2515 0.101901 0)
(23.251 0.106349 -4.3991e-30)
(23.2505 0.110828 -1.12002e-29)
(23.25 0.115333 -6.73234e-30)
(23.2494 0.119857 -7.79641e-30)
(23.2488 0.124395 -8.78626e-30)
(23.2482 0.128942 -9.70848e-30)
(23.2475 0.133491 -1.05521e-29)
(23.2468 0.138037 -1.13289e-29)
(23.246 0.142576 -1.20301e-29)
(23.2452 0.147102 3.8068e-34)
(23.2444 0.151611 3.71479e-34)
(23.2436 0.156099 3.62054e-34)
(23.2427 0.16056 3.52447e-34)
(23.2418 0.164991 3.42699e-34)
(23.2409 0.169388 0)
(23.2399 0.173747 -3.22931e-34)
(23.2389 0.178065 3.1298e-34)
(23.2379 0.18234 0)
(23.2369 0.186567 1.46553e-34)
(23.2359 0.190745 -1.41619e-34)
(23.2348 0.19487 0)
(23.2338 0.198941 -2.63773e-34)
(23.2327 0.202956 1.52512e-29)
(23.2316 0.206913 1.51149e-29)
(23.2305 0.21081 1.49471e-29)
(23.2294 0.214646 1.47486e-29)
(23.2283 0.21842 1.45251e-29)
(23.2272 0.22213 1.42765e-29)
(23.2261 0.225776 1.40083e-29)
(23.225 0.229357 -3.87141e-34)
(23.2239 0.232873 4.53659e-34)
(23.2228 0.236323 1.31018e-29)
(23.2217 0.239707 0)
(23.2206 0.243024 1.2438e-29)
(23.2195 0.246275 1.2094e-29)
(23.2185 0.24946 -1.17452e-29)
(23.2174 0.25258 2.27948e-34)
(23.2163 0.255633 -1.78543e-34)
(23.2153 0.258622 -1.06827e-29)
(23.2142 0.261547 -1.03201e-29)
(23.2132 0.264408 -9.94288e-30)
(23.2121 0.267206 -1.17035e-29)
(22.9043 -0.0343038 0)
(22.9462 -0.0302512 2.35526e-31)
(22.9713 -0.0275467 -1.34844e-30)
(22.9917 -0.0239455 -4.49723e-31)
(23.0052 -0.0209067 2.54487e-29)
(23.0146 -0.0183536 3.18512e-31)
(23.0215 -0.0163123 -2.89374e-29)
(23.0269 -0.0147213 0)
(23.0314 -0.0134864 -6.2165e-29)
(23.0355 -0.0125251 -6.33369e-29)
(23.0393 -0.0117681 0)
(23.0429 -0.0111639 0)
(23.0464 -0.0106754 6.74384e-29)
(23.0497 -0.0102759 1.37763e-28)
(23.0529 -0.00994584 1.39392e-28)
(23.056 -0.00967058 1.41024e-28)
(23.0591 -0.00943915 -1.21954e-31)
(23.0621 -0.00924316 -7.16841e-29)
(23.065 -0.00907609 7.22928e-29)
(23.0679 -0.00893281 7.27977e-29)
(23.0707 -0.00880929 0)
(23.0734 -0.00870226 -1.46386e-28)
(23.0761 -0.00860912 -1.46638e-28)
(23.0787 -0.00852771 -1.0955e-31)
(23.0812 -0.00845629 0)
(23.0837 -0.0083934 1.06475e-31)
(23.0862 -0.00833784 0)
(23.0886 -0.0082886 1.45682e-28)
(23.0909 -0.00824483 1.45142e-28)
(23.0932 -0.00820581 -5.01138e-32)
(23.0954 -0.00817093 0)
(23.0976 -0.00813967 0)
(23.0997 -0.00811159 -9.54775e-32)
(23.1017 -0.0080863 0)
(23.1037 -0.00806347 -4.61453e-32)
(23.1057 -0.00804282 4.53469e-32)
(23.1076 -0.00802411 -8.90958e-32)
(23.1094 -0.0080071 1.35155e-28)
(23.1112 -0.00799162 -6.60848e-34)
(23.113 -0.0079775 -1.32098e-28)
(23.1147 -0.0079646 -1.30435e-28)
(23.1163 -0.00795279 -1.28737e-28)
(23.1179 -0.00794196 0)
(23.1195 -0.007932 0)
(23.121 -0.00792284 1.23329e-28)
(23.1225 -0.00791439 1.21449e-28)
(23.124 -0.00790658 1.83099e-32)
(23.1254 -0.00789935 -1.17604e-28)
(23.1267 -0.00789265 -2.31264e-28)
(23.128 -0.00788643 -1.13627e-28)
(23.1293 -0.00788063 0)
(23.1306 -0.00787521 -1.09556e-28)
(23.1318 -0.00787015 1.45801e-34)
(23.133 -0.00786539 -1.28169e-34)
(23.1341 -0.00786089 -7.52425e-33)
(23.1352 -0.00785663 7.35483e-33)
(23.1363 -0.00785256 -9.91983e-29)
(23.1373 -0.00784863 -9.71122e-29)
(23.1384 -0.00784479 -9.50415e-29)
(23.1393 -0.00784098 0)
(23.1403 -0.00783712 -3.27113e-33)
(23.1412 -0.00783312 -6.35871e-33)
(23.1421 -0.00782887 -3.08637e-33)
(23.143 -0.00782423 0)