/*--------------------------------*- C++ -*----------------------------------*\
| =========                 |                                                 |
| \\      /  F ield         | OpenFOAM: The Open Source CFD Toolbox           |
|  \\    /   O peration     | Version:  2.1.1                                 |
|   \\  /    A nd           | Web:      www.OpenFOAM.org                      |
|    \\/     M anipulation  |                                                 |
\*---------------------------------------------------------------------------*/
FoamFile
{
    version     2.0;
    format      ascii;
    class       volScalarField;
    location    "4800";
    object      yPlus;
}
// * * * * * * * * * * * * * * * * * * * * * * * * * * * * * * * * * * * * * //

dimensions      [0 0 0 0 0 0 0];

internalField   uniform 0;

boundaryField
{
    inlet
    {
        type            calculated;
        value           uniform 0;
    }
    outlet
    {
        type            calculated;
        value           uniform 0;
    }
    wall
    {
        type            calculated;
        value           nonuniform List<scalar> 
1300
(
238.656
193.345
184.99
181.889
179.005
176.414
174.2
172.288
170.603
169.096
167.733
166.493
165.357
164.312
163.347
162.452
161.62
160.846
160.122
159.445
158.811
158.215
157.655
157.127
156.629
156.159
155.714
155.293
154.894
154.515
154.156
153.814
153.489
153.18
152.885
152.604
152.335
152.079
151.835
151.6
151.377
151.163
150.958
150.761
150.573
150.393
150.219
150.053
149.894
149.74
149.593
149.452
149.316
149.185
149.059
148.938
148.822
148.71
148.602
148.498
148.398
148.301
148.208
148.118
148.032
147.949
147.868
147.79
147.716
147.643
147.573
147.506
147.441
147.379
147.318
147.26
147.203
147.149
147.096
147.046
146.997
146.95
146.905
146.862
146.82
146.78
146.741
146.704
146.669
146.635
146.602
146.571
146.542
146.514
146.488
146.463
146.44
146.418
146.398
146.379
146.362
146.346
146.332
146.319
146.308
146.298
146.289
146.282
146.275
146.271
146.267
146.265
146.264
146.264
146.266
146.27
146.274
146.28
146.287
146.296
146.305
146.317
146.329
146.342
146.357
146.373
146.391
146.409
146.428
146.449
146.471
146.493
146.517
146.541
146.567
146.593
146.621
146.649
146.678
146.707
146.738
146.769
146.801
146.834
146.868
146.901
146.936
146.971
147.007
147.043
147.08
147.117
147.155
147.193
147.231
147.271
147.31
147.35
147.39
147.431
147.472
147.513
147.555
147.597
147.64
147.683
147.726
147.771
147.815
147.861
147.901
147.974
147.895
148.538
145.75
54.6049
40.643
39.5934
39.7769
39.9111
40.0756
40.2349
40.3935
40.5497
40.7029
40.8535
41.0019
41.1489
41.2956
41.4432
41.5924
41.7446
41.9009
42.0618
42.2283
42.4007
42.5795
42.7652
42.96
43.1655
43.3811
43.6078
43.8471
44.0993
44.3653
44.6455
44.9406
45.2509
45.5771
45.9194
46.2784
46.6544
47.048
47.4593
47.8889
48.3372
48.8047
49.2917
49.7985
50.3259
50.8741
51.4437
52.0351
52.649
53.2857
53.9458
54.6301
55.339
56.073
56.833
57.6195
58.4331
59.2746
60.1448
61.0443
61.9739
62.9345
63.9268
64.9518
66.0104
67.1036
68.2323
69.3976
70.6006
71.8425
73.1245
74.4479
75.8139
77.2241
78.68
80.183
81.7349
83.3372
84.9919
86.7007
88.4657
90.2887
92.172
94.1175
96.1274
98.204
100.349
102.566
104.855
107.22
109.662
112.182
114.782
117.464
120.228
123.073
126
129.006
132.09
135.247
138.472
141.758
145.096
148.476
151.883
155.302
158.713
162.097
165.428
168.68
171.815
174.821
177.644
180.253
182.621
184.712
186.497
187.947
189.038
189.749
190.065
189.978
189.484
188.587
187.294
185.618
183.58
181.199
178.502
175.516
172.269
168.789
165.105
161.244
157.231
153.15
150.221
147.18
144.047
140.838
137.566
134.244
130.885
127.501
124.106
120.711
117.332
113.982
110.674
107.429
104.307
101.411
98.7762
96.3808
94.2006
92.2141
90.4016
88.7457
87.2306
85.8422
84.5682
83.3973
82.3196
81.3262
80.4092
79.5615
78.7768
78.0495
77.3745
76.7473
76.1639
75.6208
75.1147
74.6427
74.2025
73.7918
73.4085
73.0511
72.718
72.408
72.1199
71.8529
71.6063
71.3794
71.1718
70.9832
70.8133
70.662
70.5293
70.4154
70.3199
70.2434
70.1863
70.1488
70.1312
70.1336
70.1564
70.1999
70.2646
70.3507
70.4585
70.5885
70.7407
70.9156
71.1132
71.3339
71.5777
71.8447
72.1351
72.4488
72.7858
73.1462
73.5297
73.9363
74.3656
74.8176
75.292
75.7884
76.3065
76.846
77.4063
77.9871
78.5879
79.2081
79.8472
80.5047
81.18
81.8723
82.5813
83.3061
84.0461
84.8007
85.5693
86.351
87.1454
87.9516
88.7691
89.5972
90.4353
91.2828
92.1391
93.0036
93.8759
94.7555
95.6421
96.5355
97.4356
98.3424
99.2564
100.178
101.109
102.052
103.01
103.988
104.996
106.048
107.171
108.407
109.834
111.582
113.863
116.974
121.235
126.852
133.795
141.796
150.485
159.522
168.662
177.764
186.766
195.659
204.46
213.203
221.925
230.666
239.462
248.346
257.35
266.503
275.833
285.366
295.131
305.156
315.473
326.117
337.126
348.55
360.439
372.864
385.905
399.665
414.272
429.9
446.788
465.275
485.909
509.226
536.883
564.693
380.004
184.876
263.79
284.832
290.562
295.392
300.872
307.077
313.478
319.733
325.693
331.303
336.554
341.458
346.041
350.333
354.363
358.154
361.732
365.129
368.392
371.494
374.463
377.312
380.043
382.648
385.114
387.433
389.595
391.589
393.406
395.038
396.478
397.718
398.753
399.579
400.192
400.59
400.777
400.75
400.515
400.077
399.441
398.616
397.61
396.433
395.095
393.606
391.981
390.231
388.383
386.587
385.539
384.662
383.723
382.716
381.649
380.53
379.362
378.155
376.912
375.639
374.34
373.02
371.68
370.325
368.955
367.574
366.182
364.779
363.365
361.941
360.506
359.059
357.598
356.122
354.631
353.12
351.589
350.034
348.455
346.851
345.216
343.551
341.853
340.12
338.35
336.544
334.698
332.814
330.887
328.919
326.911
324.861
322.769
320.636
318.463
316.25
313.999
311.711
309.386
307.028
304.635
302.21
299.757
297.274
294.767
292.233
289.677
287.099
284.502
281.888
279.257
276.612
273.955
271.286
268.608
265.922
263.23
260.534
257.834
255.134
252.434
249.737
247.044
244.357
241.678
239.009
236.352
233.709
231.082
228.472
225.883
223.317
220.775
218.259
215.771
213.314
210.89
208.502
206.15
203.837
201.565
199.336
197.15
195.01
192.917
190.871
188.874
186.927
185.03
183.183
181.388
179.643
177.949
176.305
174.711
173.165
171.668
170.219
168.815
167.456
166.142
164.87
163.639
162.448
161.296
160.182
159.103
158.059
157.047
156.072
155.103
154.275
152.897
238.656
193.345
184.99
181.889
179.005
176.414
174.2
172.288
170.603
169.096
167.733
166.493
165.357
164.312
163.347
162.452
161.62
160.846
160.122
159.445
158.811
158.215
157.655
157.127
156.629
156.159
155.714
155.293
154.894
154.515
154.156
153.814
153.489
153.179
152.885
152.604
152.335
152.079
151.835
151.6
151.377
151.163
150.958
150.761
150.573
150.393
150.219
150.053
149.894
149.74
149.593
149.452
149.316
149.185
149.059
148.938
148.822
148.71
148.602
148.498
148.398
148.301
148.208
148.118
148.032
147.948
147.868
147.79
147.715
147.643
147.573
147.506
147.441
147.378
147.318
147.259
147.203
147.149
147.096
147.046
146.997
146.95
146.905
146.861
146.819
146.779
146.74
146.703
146.668
146.634
146.601
146.57
146.541
146.513
146.487
146.462
146.439
146.417
146.396
146.378
146.36
146.344
146.33
146.317
146.306
146.296
146.287
146.279
146.273
146.268
146.264
146.262
146.261
146.262
146.263
146.266
146.271
146.277
146.284
146.292
146.302
146.313
146.325
146.338
146.353
146.369
146.386
146.404
146.424
146.444
146.465
146.488
146.511
146.536
146.561
146.588
146.615
146.643
146.672
146.702
146.732
146.763
146.795
146.827
146.861
146.894
146.929
146.964
146.999
147.036
147.072
147.109
147.147
147.185
147.223
147.262
147.302
147.341
147.382
147.422
147.463
147.504
147.546
147.588
147.631
147.674
147.717
147.761
147.805
147.851
147.891
147.964
147.885
148.528
145.74
54.5942
40.6433
39.5937
39.7777
39.9122
40.0771
40.2365
40.3952
40.5515
40.7049
40.8556
41.004
41.1512
41.298
41.4455
41.5949
41.7471
41.9035
42.0645
42.231
42.4035
42.5823
42.768
42.9629
43.1686
43.3841
43.611
43.8502
44.1025
44.3685
44.6488
44.9441
45.2545
45.5807
45.9232
46.2822
46.6583
47.0519
47.4633
47.893
48.3414
48.8089
49.296
49.803
50.3304
50.8787
51.4484
52.0399
52.6538
53.2906
53.9509
54.6352
55.3442
56.0784
56.8384
57.625
58.4386
59.2803
60.1505
61.05
61.9797
62.9403
63.9328
64.9577
66.0164
67.1096
68.2383
69.4037
70.6066
71.8485
73.1305
74.4538
75.8199
77.23
78.6857
80.1887
81.7404
83.3426
84.9972
86.7059
88.4706
90.2935
92.1765
94.1218
96.1315
98.2078
100.353
102.569
104.858
107.222
109.663
112.183
114.783
117.465
120.228
123.073
125.999
129.004
132.087
135.244
138.468
141.753
145.091
148.469
151.875
155.293
158.704
162.085
165.415
168.669
171.802
174.805
177.627
180.235
182.601
184.692
186.475
187.924
189.014
189.723
190.039
189.951
189.457
188.558
187.265
185.589
183.551
181.17
178.473
175.487
172.24
168.76
165.076
161.216
157.203
153.121
150.193
147.152
144.019
140.81
137.538
134.216
130.858
127.474
124.079
120.686
117.304
113.967
110.619
107.566
101.799
96.023
90.9867
86.544
82.6573
79.2492
76.2621
73.6422
71.3452
69.3319
67.569
66.0273
64.6815
63.5097
62.4923
61.6123
60.8548
60.2058
59.6539
59.1885
58.8002
58.4806
58.2225
58.0191
57.8645
57.7537
57.6818
57.645
57.6395
57.6623
57.7106
57.7821
57.8746
57.9864
58.1161
58.2625
58.4245
58.6013
58.7923
58.9972
59.215
59.4461
59.6906
59.9486
60.22
60.5048
60.8034
61.1157
61.4425
61.7837
62.1399
62.5114
62.8985
63.3015
63.7208
64.1567
64.6095
65.0794
65.5665
66.0712
66.5936
67.1338
67.6918
68.2676
68.8614
69.4728
70.1021
70.7488
71.413
72.0942
72.7923
73.5071
74.238
74.9848
75.7471
76.5243
77.3162
78.122
78.9415
79.774
80.6189
81.4758
82.344
83.2229
84.1121
85.0108
85.9185
86.8347
87.7587
88.69
89.6282
90.5727
91.523
92.4789
93.4401
94.4062
95.3774
96.3537
97.3355
98.3236
99.3196
100.326
101.345
102.384
103.451
104.562
105.742
107.035
108.519
110.326
112.668
115.843
120.167
125.84
132.819
140.835
149.52
158.541
167.659
176.74
185.725
194.606
203.402
212.147
220.878
229.634
238.449
247.358
256.391
265.577
274.943
284.516
294.322
304.392
314.756
325.448
336.509
347.983
359.93
372.411
385.51
399.329
413.998
429.69
446.644
465.2
485.906
509.297
537.034
564.937
380.173
184.912
263.771
284.802
290.526
295.353
300.83
307.035
313.434
319.688
325.647
331.257
336.507
341.41
345.995
350.287
354.318
358.111
361.689
365.088
368.352
371.455
374.424
377.274
380.006
382.612
385.08
387.4
389.562
391.558
393.375
395.009
396.45
397.692
398.729
399.556
400.171
400.572
400.759
400.734
400.501
400.065
399.431
398.608
397.604
396.428
395.09
393.604
391.98
390.232
388.384
386.583
385.529
384.652
383.713
382.708
381.641
380.522
379.356
378.149
376.907
375.633
374.335
373.014
371.674
370.32
368.95
367.569
366.177
364.773
363.361
361.936
360.501
359.054
357.592
356.117
354.625
353.114
351.583
350.029
348.451
346.845
345.211
343.545
341.848
340.115
338.346
336.539
334.694
332.809
330.883
328.916
326.907
324.857
322.765
320.632
318.459
316.248
313.997
311.708
309.383
307.025
304.632
302.209
299.754
297.273
294.764
292.231
289.675
287.098
284.501
281.886
279.256
276.611
273.953
271.285
268.606
265.921
263.229
260.532
257.833
255.133
252.433
249.736
247.043
244.356
241.677
239.008
236.35
233.707
231.08
228.471
225.881
223.315
220.773
218.257
215.769
213.312
210.888
208.499
206.148
203.835
201.563
199.334
197.148
195.008
192.914
190.869
188.872
186.925
185.028
183.181
181.386
179.641
177.947
176.303
174.709
173.164
171.666
170.217
168.813
167.455
166.14
164.868
163.637
162.447
161.295
160.18
159.101
158.058
157.046
156.07
155.102
154.274
152.895
)
;
    }
    heatedWall
    {
        type            calculated;
        value           nonuniform List<scalar> 
680
(
350.493
353.192
355.198
356.647
357.679
358.395
358.879
359.191
359.383
359.488
359.536
359.546
359.531
359.504
359.469
359.43
359.394
359.36
359.331
359.31
359.334
359.321
359.307
359.289
359.268
359.247
359.223
359.197
359.171
359.142
359.113
359.083
359.049
359.015
358.979
358.942
358.902
358.86
358.816
358.771
358.723
358.671
358.618
358.561
358.5
358.435
358.367
358.296
358.218
358.137
358.05
357.956
357.857
357.751
357.639
357.519
357.391
357.255
357.109
356.954
356.787
356.61
356.419
356.217
356
355.767
355.519
355.254
354.97
354.667
354.342
353.994
353.622
353.224
352.796
352.34
351.852
351.328
350.767
350.168
349.527
348.838
348.103
347.317
346.476
345.576
344.615
343.591
342.497
341.331
340.089
338.769
337.367
335.881
334.306
332.643
330.888
329.04
327.099
325.064
322.936
320.716
318.406
316.009
313.527
310.965
308.327
305.617
302.842
300.008
297.12
294.185
291.205
288.183
285.129
282.054
278.966
275.873
272.779
269.687
266.602
263.525
260.459
257.405
254.366
251.342
248.334
245.341
242.364
239.402
236.455
233.523
230.607
227.709
224.831
221.977
219.154
216.368
213.631
210.955
208.356
205.854
203.469
201.224
199.143
197.247
195.551
194.058
192.755
191.607
190.557
189.525
188.42
187.144
185.606
183.733
181.474
178.801
175.711
172.223
168.369
164.199
159.765
155.126
150.341
145.466
140.555
135.654
130.805
126.04
121.471
117.258
113.444
109.988
106.852
104.002
101.406
99.0372
96.8715
94.8873
93.0655
91.3896
89.8448
88.4182
87.0983
85.875
84.7392
83.6828
82.6987
81.7806
80.9225
80.1192
79.3661
78.6589
77.9936
77.3665
76.7744
76.2142
75.6831
75.1783
74.6973
74.2378
73.7974
73.3739
72.9655
72.5699
72.1855
71.8103
71.4427
71.081
70.7237
70.3693
70.0163
69.6635
69.3097
68.9538
68.5947
68.2316
67.8637
67.4903
67.1107
66.7246
66.3316
65.9315
65.5243
65.1097
64.688
64.2593
63.8239
63.3821
62.9344
62.4813
62.0232
61.5609
61.0949
60.6259
60.1546
59.6819
59.2082
58.7345
58.2613
57.7896
57.3199
56.8529
56.3892
55.9295
55.4744
55.0245
54.5803
54.1423
53.711
53.2866
52.8697
52.4606
52.0596
51.6669
51.2828
50.9076
50.5413
50.184
49.8359
49.4972
49.1677
48.8476
48.5369
48.2353
47.943
47.66
47.386
47.1208
46.8646
46.6171
46.3782
46.1478
45.9254
45.7112
45.5047
45.306
45.1148
44.9308
44.7539
44.5838
44.4202
44.2632
44.1124
43.9676
43.8286
43.6951
43.567
43.4442
43.3264
43.2133
43.1049
43.0009
42.9013
42.8057
42.7141
42.6262
42.542
42.4611
42.3837
42.3094
42.2382
42.1699
42.1043
42.0415
41.9813
41.9235
41.868
41.8148
41.7637
41.7147
41.6676
41.6223
41.5789
41.5372
41.497
41.4583
41.421
41.3856
42.7452
41.0114
39.1295
38.0724
37.8552
38.0713
38.4225
38.7879
39.134
39.4545
39.7483
40.0155
40.2561
40.471
40.6617
40.8298
40.9777
41.1069
41.2198
41.318
359.31
359.331
359.36
359.394
359.43
359.469
359.504
359.533
359.546
359.537
359.49
359.383
359.192
358.879
358.396
357.679
356.647
355.198
353.192
350.491
359.334
359.321
359.307
359.289
359.268
359.247
359.223
359.197
359.171
359.142
359.113
359.083
359.049
359.015
358.979
358.942
358.902
358.86
358.816
358.771
358.723
358.673
358.618
358.561
358.5
358.436
358.369
358.296
358.218
358.137
358.05
357.957
357.858
357.753
357.639
357.519
357.393
357.255
357.11
356.954
356.789
356.61
356.421
356.217
356
355.767
355.519
355.254
354.97
354.666
354.342
353.994
353.622
353.222
352.796
352.339
351.85
351.327
350.766
350.166
349.524
348.835
348.1
347.312
346.471
345.571
344.61
343.584
342.488
341.323
340.08
338.759
337.356
335.869
334.294
332.63
330.874
329.025
327.083
325.047
322.919
320.698
318.387
315.989
313.507
310.944
308.305
305.595
302.819
299.985
297.096
294.161
291.18
288.158
285.104
282.028
278.94
275.847
272.753
269.661
266.576
263.499
260.433
257.38
254.341
251.317
248.309
245.316
242.339
239.377
236.431
233.499
230.584
227.687
224.809
221.956
219.133
216.348
213.611
210.936
208.339
205.837
203.453
201.21
199.13
197.235
195.539
194.047
192.744
191.597
190.546
189.515
188.408
187.13
185.591
183.716
181.455
178.78
175.688
172.198
168.344
164.172
159.736
155.097
150.309
145.438
140.52
135.629
130.777
125.956
122.442
121.8
121.063
120.132
119.077
117.937
116.737
115.497
114.231
112.951
111.666
110.383
109.108
107.845
106.597
105.368
104.159
102.972
101.808
100.669
99.5547
98.4656
97.402
96.3639
95.351
94.3631
93.3996
92.46
91.5435
90.6495
89.7769
88.9249
88.0923
87.2781
86.4812
85.7004
84.9344
84.1822
83.4423
82.7136
81.995
81.2851
80.583
79.8875
79.1975
78.512
77.8304
77.1515
76.4749
75.7998
75.1258
74.4523
73.779
73.1058
72.4325
71.7591
71.0856
70.4122
69.739
69.0664
68.3948
67.7245
67.0561
66.39
65.7268
65.0671
64.4114
63.7603
63.1145
62.4746
61.8411
61.2146
60.5958
59.9851
59.3829
58.7899
58.2065
57.633
57.0699
56.5175
55.9761
55.446
54.9275
54.4206
53.9256
53.4428
52.972
52.5134
52.0672
51.6331
51.2113
50.8017
50.4043
50.0188
49.6455
49.2838
48.9339
48.5953
48.2682
47.9522
47.6471
47.3527
47.0687
46.795
46.5313
46.2773
46.0327
45.7974
45.5711
45.3535
45.1441
44.943
44.7499
44.5644
44.3862
44.2151
44.0509
43.8933
43.7421
43.597
43.4577
43.3242
43.1961
43.0733
42.9554
42.8423
42.734
42.6301
42.5303
42.4346
42.3429
42.2549
42.1704
42.0896
42.0118
41.9374
41.8657
41.7972
41.7313
41.668
41.6074
41.5491
41.493
41.4393
41.3877
41.338
41.2902
41.2444
41.2002
41.1579
41.0877
40.9927
40.8841
40.7593
40.6154
40.4496
40.26
40.0449
39.8035
39.5359
39.2417
38.9211
38.5748
38.2093
37.8614
37.6608
37.9189
39.0439
40.9888
42.7478
)
;
    }
    frontAndBack
    {
        type            empty;
    }
}


// ************************************************************************* //
