# Time	Cd	Cl	Cm
1	1.00897e-06	3.53225e-07	0
2	1.57777e-06	1.90704e-07	0
3	8.25643e-07	-1.9597e-07	0
4	-5.05527e-07	-3.28007e-07	0
5	-9.04722e-07	-1.22782e-07	0
6	1.37683e-10	8.76683e-08	0
7	1.02952e-06	8.53633e-08	0
8	1.08401e-06	-6.60595e-08	0
9	3.06801e-07	-1.62517e-07	0
10	-2.99223e-07	-1.13069e-07	0
11	-1.55836e-07	-2.29958e-09	0
12	4.22342e-07	2.50184e-08	0
13	7.31065e-07	-4.48944e-08	0
14	5.38606e-07	-1.19685e-07	0
15	1.73078e-07	-1.15805e-07	0
16	6.52443e-08	-5.56457e-08	0
17	2.51553e-07	-3.65714e-09	0
18	4.63888e-07	-1.85734e-08	0
19	4.78018e-07	-6.924e-08	0
20	3.41772e-07	-1.05509e-07	0
21	2.40306e-07	-9.27438e-08	0
22	2.70729e-07	-5.18584e-08	0
23	3.67752e-07	-2.28897e-08	0
24	4.15672e-07	-3.33084e-08	0
25	3.80622e-07	-6.63436e-08	0
26	3.24594e-07	-8.72884e-08	0
27	3.1267e-07	-7.85922e-08	0
28	3.47631e-07	-5.56643e-08	0
29	3.85914e-07	-3.77017e-08	0
30	3.91936e-07	-4.05661e-08	0
31	3.71798e-07	-5.82326e-08	0
32	3.54182e-07	-7.25964e-08	0
33	3.55666e-07	-7.18025e-08	0
34	3.72672e-07	-5.80851e-08	0
35	3.87917e-07	-4.60338e-08	0
36	3.91091e-07	-4.58028e-08	0
37	3.86276e-07	-5.47277e-08	0
38	3.81394e-07	-6.27086e-08	0
39	3.81847e-07	-6.27757e-08	0
40	3.87192e-07	-5.67707e-08	0
41	3.93227e-07	-5.13353e-08	0
42	3.97192e-07	-5.0761e-08	0
43	3.98894e-07	-5.3884e-08	0
44	3.99208e-07	-5.68275e-08	0
45	3.99388e-07	-5.65254e-08	0
46	4.00576e-07	-5.45345e-08	0
47	4.02884e-07	-5.31588e-08	0
48	4.05901e-07	-5.2996e-08	0
49	4.08495e-07	-5.35694e-08	0
50	4.10335e-07	-5.44145e-08	0
51	4.11292e-07	-5.36556e-08	0
52	4.1198e-07	-5.30595e-08	0
53	4.13292e-07	-5.2999e-08	0
54	4.15234e-07	-5.31693e-08	0
55	4.17346e-07	-5.2697e-08	0
56	4.1915e-07	-5.32483e-08	0
57	4.2046e-07	-5.28886e-08	0
58	4.21638e-07	-5.262e-08	0
59	4.22852e-07	-5.25038e-08	0
60	4.24308e-07	-5.22244e-08	0
61	4.26005e-07	-5.25224e-08	0
62	4.27694e-07	-5.24238e-08	0
63	4.29196e-07	-5.2124e-08	0
64	4.30549e-07	-5.21494e-08	0
65	4.31758e-07	-5.19738e-08	0
66	4.3309e-07	-5.20813e-08	0
67	4.34708e-07	-5.23432e-08	0
68	4.36374e-07	-5.20692e-08	0
69	4.38003e-07	-5.17455e-08	0
70	4.39465e-07	-5.1723e-08	0
71	4.40631e-07	-5.15152e-08	0
72	4.41844e-07	-5.16563e-08	0
73	4.43344e-07	-5.20161e-08	0
74	4.45038e-07	-5.1904e-08	0
75	4.46726e-07	-5.15746e-08	0
76	4.48165e-07	-5.11941e-08	0
77	4.49376e-07	-5.12206e-08	0
78	4.50598e-07	-5.15012e-08	0
79	4.52051e-07	-5.19043e-08	0
80	4.5359e-07	-5.17256e-08	0
81	4.55075e-07	-5.1387e-08	0
82	4.56445e-07	-5.11889e-08	0
83	4.57733e-07	-5.12292e-08	0
84	4.58979e-07	-5.13772e-08	0
85	4.60172e-07	-5.13749e-08	0
86	4.61452e-07	-5.14015e-08	0
87	4.62757e-07	-5.13838e-08	0
88	4.64046e-07	-5.13516e-08	0
89	4.65298e-07	-5.12791e-08	0
90	4.66428e-07	-5.12285e-08	0
91	4.67573e-07	-5.12807e-08	0
92	4.68627e-07	-5.12875e-08	0
93	4.69682e-07	-5.1155e-08	0
94	4.70728e-07	-5.1146e-08	0
95	4.71768e-07	-5.12919e-08	0
96	4.72796e-07	-5.14096e-08	0
97	4.73786e-07	-5.13595e-08	0
98	4.74756e-07	-5.12582e-08	0
99	4.75664e-07	-5.11321e-08	0
100	4.76506e-07	-5.11188e-08	0
101	4.77236e-07	-5.12949e-08	0
102	4.78082e-07	-5.13257e-08	0
103	4.79013e-07	-5.12181e-08	0
104	4.79852e-07	-5.1146e-08	0
105	4.80564e-07	-5.1145e-08	0
106	4.81136e-07	-5.12031e-08	0
107	4.81772e-07	-5.13226e-08	0
108	4.82462e-07	-5.1258e-08	0
109	4.83225e-07	-5.10357e-08	0
110	4.83823e-07	-5.09863e-08	0
111	4.84347e-07	-5.10678e-08	0
112	4.849e-07	-5.11649e-08	0
113	4.85506e-07	-5.11613e-08	0
114	4.86079e-07	-5.09988e-08	0
115	4.8652e-07	-5.08144e-08	0
116	4.8673e-07	-5.08907e-08	0
117	4.87115e-07	-5.1007e-08	0
118	4.87565e-07	-5.10757e-08	0
119	4.88035e-07	-5.09174e-08	0
120	4.88497e-07	-5.07128e-08	0
121	4.88861e-07	-5.06087e-08	0
122	4.88948e-07	-5.06811e-08	0
123	4.88965e-07	-5.07918e-08	0
124	4.8913e-07	-5.07361e-08	0
125	4.89296e-07	-5.0611e-08	0
126	4.89499e-07	-5.04698e-08	0
127	4.89538e-07	-5.0449e-08	0
128	4.89524e-07	-5.04874e-08	0
129	4.89567e-07	-5.04426e-08	0
130	4.8945e-07	-5.02957e-08	0
131	4.89043e-07	-5.01715e-08	0
132	4.88581e-07	-5.01278e-08	0
133	4.88145e-07	-5.01688e-08	0
134	4.87604e-07	-5.01893e-08	0
135	4.87433e-07	-5.01308e-08	0
136	4.87174e-07	-4.98206e-08	0
137	4.86558e-07	-4.95026e-08	0
138	4.85538e-07	-4.94401e-08	0
139	4.8412e-07	-4.97429e-08	0
140	4.83018e-07	-4.98284e-08	0
141	4.81857e-07	-4.98246e-08	0
142	4.8094e-07	-4.92222e-08	0
143	4.79716e-07	-4.87349e-08	0
144	4.7787e-07	-4.88326e-08	0
145	4.76005e-07	-4.91995e-08	0
146	4.74373e-07	-4.93669e-08	0
147	4.72802e-07	-4.90697e-08	0
148	4.70827e-07	-4.85491e-08	0
149	4.68128e-07	-4.83099e-08	0
150	4.65155e-07	-4.84002e-08	0
151	4.62378e-07	-4.85065e-08	0
152	4.596e-07	-4.85082e-08	0
153	4.5686e-07	-4.82093e-08	0
154	4.53983e-07	-4.77848e-08	0
155	4.50614e-07	-4.76564e-08	0
156	4.4704e-07	-4.77358e-08	0
157	4.43411e-07	-4.77239e-08	0
158	4.39385e-07	-4.75687e-08	0
159	4.34857e-07	-4.74414e-08	0
160	4.30192e-07	-4.72221e-08	0
161	4.25405e-07	-4.70519e-08	0
162	4.20478e-07	-4.70199e-08	0
163	4.15089e-07	-4.71679e-08	0
164	4.10773e-07	-4.67473e-08	0
165	4.0551e-07	-4.59916e-08	0
166	3.99622e-07	-4.5696e-08	0
167	3.93102e-07	-4.61762e-08	0
168	3.8674e-07	-4.64425e-08	0
169	3.80241e-07	-4.63039e-08	0
170	3.73367e-07	-4.57148e-08	0
171	3.66011e-07	-4.51703e-08	0
172	3.58091e-07	-4.52209e-08	0
173	3.50134e-07	-4.54379e-08	0
174	3.42378e-07	-4.52761e-08	0
175	3.34485e-07	-4.48242e-08	0
176	3.26303e-07	-4.43726e-08	0
177	3.17393e-07	-4.44148e-08	0
178	3.08108e-07	-4.44887e-08	0
179	2.98627e-07	-4.44812e-08	0
180	2.89221e-07	-4.41614e-08	0
181	2.79236e-07	-4.39163e-08	0
182	2.68231e-07	-4.37044e-08	0
183	2.56536e-07	-4.36564e-08	0
184	2.4504e-07	-4.34094e-08	0
185	2.3354e-07	-4.32706e-08	0
186	2.21942e-07	-4.30265e-08	0
187	2.09889e-07	-4.28132e-08	0
188	1.9737e-07	-4.27162e-08	0
189	1.84441e-07	-4.25213e-08	0
190	1.71285e-07	-4.23245e-08	0
191	1.57711e-07	-4.22834e-08	0
192	1.44238e-07	-4.20821e-08	0
193	1.3058e-07	-4.1716e-08	0
194	1.16422e-07	-4.14659e-08	0
195	1.00674e-07	-4.17015e-08	0
196	8.39201e-08	-4.17412e-08	0
197	6.67328e-08	-4.17431e-08	0
198	5.11922e-08	-4.07939e-08	0
199	3.54042e-08	-4.00568e-08	0
200	1.80966e-08	-4.00995e-08	0
201	-2.91246e-10	-4.04182e-08	0
202	-1.87124e-08	-4.05079e-08	0
203	-3.66113e-08	-4.00722e-08	0
204	-5.422e-08	-3.92391e-08	0
205	-7.28324e-08	-3.90873e-08	0
206	-9.23034e-08	-3.9225e-08	0
207	-1.11832e-07	-3.89304e-08	0
208	-1.31592e-07	-3.85692e-08	0
209	-1.51506e-07	-3.83093e-08	0
210	-1.7293e-07	-3.85141e-08	0
211	-1.95258e-07	-3.87406e-08	0
212	-2.17782e-07	-3.86018e-08	0
213	-2.39682e-07	-3.74288e-08	0
214	-2.62167e-07	-3.7077e-08	0
215	-2.85569e-07	-3.73883e-08	0
216	-3.09475e-07	-3.76544e-08	0
217	-3.33398e-07	-3.73801e-08	0
218	-3.57371e-07	-3.69111e-08	0
219	-3.81652e-07	-3.63448e-08	0
220	-4.06473e-07	-3.62628e-08	0
221	-4.31748e-07	-3.6192e-08	0
222	-4.56994e-07	-3.58647e-08	0
223	-4.82752e-07	-3.56017e-08	0
224	-5.09047e-07	-3.53709e-08	0
225	-5.35821e-07	-3.51406e-08	0
226	-5.62821e-07	-3.51153e-08	0
227	-5.90463e-07	-3.50246e-08	0
228	-6.18975e-07	-3.48006e-08	0
229	-6.47863e-07	-3.4449e-08	0
230	-6.77173e-07	-3.44485e-08	0
231	-7.06378e-07	-3.41454e-08	0
232	-7.35991e-07	-3.38444e-08	0
233	-7.65975e-07	-3.35271e-08	0
234	-7.96557e-07	-3.35024e-08	0
235	-8.2701e-07	-3.31677e-08	0
236	-8.57933e-07	-3.30403e-08	0
237	-8.88932e-07	-3.27629e-08	0
238	-9.20112e-07	-3.22392e-08	0
239	-9.51863e-07	-3.18986e-08	0
240	-9.8439e-07	-3.20171e-08	0
241	-1.01671e-06	-3.18391e-08	0
242	-1.04896e-06	-3.13587e-08	0
243	-1.08178e-06	-3.10633e-08	0
244	-1.11504e-06	-3.08516e-08	0
245	-1.14867e-06	-3.0778e-08	0
246	-1.18261e-06	-3.09103e-08	0
247	-1.21591e-06	-3.01555e-08	0
248	-1.25014e-06	-2.97846e-08	0
249	-1.28519e-06	-2.98296e-08	0
250	-1.3208e-06	-3.01381e-08	0
251	-1.35587e-06	-2.98242e-08	0
252	-1.39043e-06	-2.8985e-08	0
253	-1.42573e-06	-2.86329e-08	0
254	-1.46164e-06	-2.86601e-08	0
255	-1.49734e-06	-2.84371e-08	0
256	-1.53305e-06	-2.80895e-08	0
257	-1.56901e-06	-2.79364e-08	0
258	-1.60472e-06	-2.74061e-08	0
259	-1.64075e-06	-2.7114e-08	0
260	-1.67698e-06	-2.70232e-08	0
261	-1.71349e-06	-2.72118e-08	0
262	-1.74936e-06	-2.68006e-08	0
263	-1.78519e-06	-2.63049e-08	0
264	-1.82113e-06	-2.58525e-08	0
265	-1.85724e-06	-2.55503e-08	0
266	-1.89384e-06	-2.57337e-08	0
267	-1.92985e-06	-2.53785e-08	0
268	-1.96574e-06	-2.4954e-08	0
269	-2.0016e-06	-2.45363e-08	0
270	-2.03745e-06	-2.42545e-08	0
271	-2.07362e-06	-2.45055e-08	0
272	-2.1092e-06	-2.42678e-08	0
273	-2.14456e-06	-2.39571e-08	0
274	-2.17983e-06	-2.36911e-08	0
275	-2.21542e-06	-2.38224e-08	0
276	-2.25055e-06	-2.34184e-08	0
277	-2.28557e-06	-2.28629e-08	0
278	-2.32087e-06	-2.27241e-08	0
279	-2.35578e-06	-2.23237e-08	0
280	-2.39069e-06	-2.21338e-08	0
281	-2.42542e-06	-2.19701e-08	0
282	-2.45968e-06	-2.14638e-08	0
283	-2.49398e-06	-2.14177e-08	0
284	-2.52822e-06	-2.16479e-08	0
285	-2.56219e-06	-2.17151e-08	0
286	-2.59584e-06	-2.13011e-08	0
287	-2.62904e-06	-2.01427e-08	0
288	-2.66254e-06	-1.96876e-08	0
289	-2.69645e-06	-2.0029e-08	0
290	-2.73031e-06	-2.02733e-08	0
291	-2.76365e-06	-1.98718e-08	0
292	-2.79674e-06	-1.91593e-08	0
293	-2.83014e-06	-1.88738e-08	0
294	-2.86344e-06	-1.87616e-08	0
295	-2.89653e-06	-1.84835e-08	0
296	-2.92978e-06	-1.8769e-08	0
297	-2.9629e-06	-1.83272e-08	0
298	-2.99663e-06	-1.84594e-08	0
299	-3.02947e-06	-1.7841e-08	0
300	-3.06254e-06	-1.74656e-08	0
301	-3.09606e-06	-1.74669e-08	0
302	-3.13007e-06	-1.77733e-08	0
303	-3.16377e-06	-1.7499e-08	0
304	-3.19743e-06	-1.68896e-08	0
305	-3.23144e-06	-1.62967e-08	0
306	-3.26582e-06	-1.60554e-08	0
307	-3.30089e-06	-1.64658e-08	0
308	-3.33654e-06	-1.69336e-08	0
309	-3.37057e-06	-1.54169e-08	0
310	-3.40615e-06	-1.53046e-08	0
311	-3.44167e-06	-1.53651e-08	0
312	-3.47761e-06	-1.55927e-08	0
313	-3.51431e-06	-1.6039e-08	0
314	-3.55105e-06	-1.62878e-08	0
315	-3.58819e-06	-1.67776e-08	0
316	-3.62386e-06	-1.50424e-08	0
317	-3.6611e-06	-1.43597e-08	0
318	-3.70012e-06	-1.43368e-08	0
319	-3.73984e-06	-1.44774e-08	0
320	-3.77948e-06	-1.45388e-08	0
321	-3.81902e-06	-1.42779e-08	0
322	-3.8592e-06	-1.41428e-08	0
323	-3.89991e-06	-1.40696e-08	0
324	-3.9413e-06	-1.42412e-08	0
325	-3.98335e-06	-1.48433e-08	0
326	-4.02482e-06	-1.45204e-08	0
327	-4.0669e-06	-1.43867e-08	0
328	-4.10987e-06	-1.43849e-08	0
329	-4.1534e-06	-1.44105e-08	0
330	-4.19747e-06	-1.45549e-08	0
331	-4.24167e-06	-1.42318e-08	0
332	-4.28646e-06	-1.3677e-08	0
333	-4.33249e-06	-1.35019e-08	0
334	-4.37873e-06	-1.34131e-08	0
335	-4.42545e-06	-1.3483e-08	0
336	-4.47244e-06	-1.34881e-08	0
337	-4.52022e-06	-1.3716e-08	0
338	-4.56802e-06	-1.35907e-08	0
339	-4.61668e-06	-1.39099e-08	0
340	-4.66536e-06	-1.41932e-08	0
341	-4.71388e-06	-1.42891e-08	0
342	-4.76297e-06	-1.4455e-08	0
343	-4.81229e-06	-1.45433e-08	0
344	-4.86248e-06	-1.50357e-08	0
345	-4.91266e-06	-1.51335e-08	0
346	-4.96277e-06	-1.4625e-08	0
347	-5.0134e-06	-1.39136e-08	0
348	-5.06541e-06	-1.3899e-08	0
349	-5.11792e-06	-1.43832e-08	0
350	-5.16997e-06	-1.46989e-08	0
351	-5.22198e-06	-1.47079e-08	0
352	-5.27384e-06	-1.44758e-08	0
353	-5.32657e-06	-1.49498e-08	0
354	-5.37904e-06	-1.52576e-08	0
355	-5.43169e-06	-1.5688e-08	0
356	-5.48456e-06	-1.63292e-08	0
357	-5.53687e-06	-1.64542e-08	0
358	-5.58922e-06	-1.65947e-08	0
359	-5.6412e-06	-1.6623e-08	0
360	-5.6933e-06	-1.66389e-08	0
361	-5.74608e-06	-1.70577e-08	0
362	-5.79903e-06	-1.73112e-08	0
363	-5.85159e-06	-1.73352e-08	0
364	-5.90324e-06	-1.69989e-08	0
365	-5.9553e-06	-1.71436e-08	0
366	-6.00777e-06	-1.76764e-08	0
367	-6.05989e-06	-1.82882e-08	0
368	-6.11091e-06	-1.83427e-08	0
369	-6.1617e-06	-1.8503e-08	0
370	-6.21282e-06	-1.90398e-08	0
371	-6.26331e-06	-1.93711e-08	0
372	-6.31317e-06	-1.96471e-08	0
373	-6.36285e-06	-2.00235e-08	0
374	-6.41221e-06	-2.04498e-08	0
375	-6.46071e-06	-2.05798e-08	0
376	-6.50882e-06	-2.06948e-08	0
377	-6.55661e-06	-2.08518e-08	0
378	-6.60394e-06	-2.09545e-08	0
379	-6.65112e-06	-2.11187e-08	0
380	-6.69824e-06	-2.14648e-08	0
381	-6.74401e-06	-2.16552e-08	0
382	-6.78885e-06	-2.16378e-08	0
383	-6.83345e-06	-2.17257e-08	0
384	-6.87823e-06	-2.22886e-08	0
385	-6.92187e-06	-2.26861e-08	0
386	-6.96487e-06	-2.28541e-08	0
387	-7.00671e-06	-2.31679e-08	0
388	-7.04758e-06	-2.33388e-08	0
389	-7.08799e-06	-2.37791e-08	0
390	-7.12746e-06	-2.41849e-08	0
391	-7.16642e-06	-2.43389e-08	0
392	-7.20454e-06	-2.4631e-08	0
393	-7.24173e-06	-2.47937e-08	0
394	-7.27766e-06	-2.52885e-08	0
395	-7.31274e-06	-2.55856e-08	0
396	-7.34684e-06	-2.54527e-08	0
397	-7.38023e-06	-2.55606e-08	0
398	-7.41261e-06	-2.60316e-08	0
399	-7.44378e-06	-2.64602e-08	0
400	-7.4738e-06	-2.66513e-08	0
401	-7.50266e-06	-2.67273e-08	0
402	-7.53047e-06	-2.68596e-08	0
403	-7.55714e-06	-2.7131e-08	0
404	-7.58242e-06	-2.75013e-08	0
405	-7.60625e-06	-2.78555e-08	0
406	-7.62863e-06	-2.8061e-08	0
407	-7.64953e-06	-2.83087e-08	0
408	-7.66909e-06	-2.85615e-08	0
409	-7.68733e-06	-2.88535e-08	0
410	-7.70407e-06	-2.90088e-08	0
411	-7.71934e-06	-2.92632e-08	0
412	-7.73311e-06	-2.95655e-08	0
413	-7.74515e-06	-2.9866e-08	0
414	-7.75501e-06	-3.00875e-08	0
415	-7.76314e-06	-3.03902e-08	0
416	-7.76979e-06	-3.05564e-08	0
417	-7.77509e-06	-3.06668e-08	0
418	-7.77859e-06	-3.09252e-08	0
419	-7.77988e-06	-3.12325e-08	0
420	-7.77911e-06	-3.14775e-08	0
421	-7.77664e-06	-3.17037e-08	0
422	-7.77294e-06	-3.18289e-08	0
423	-7.76765e-06	-3.22221e-08	0
424	-7.76015e-06	-3.25083e-08	0
425	-7.75059e-06	-3.26679e-08	0
426	-7.73938e-06	-3.26724e-08	0
427	-7.72724e-06	-3.26841e-08	0
428	-7.71388e-06	-3.29342e-08	0
429	-7.6991e-06	-3.31897e-08	0
430	-7.68246e-06	-3.35061e-08	0
431	-7.66486e-06	-3.36905e-08	0
432	-7.64651e-06	-3.37734e-08	0
433	-7.6274e-06	-3.39708e-08	0
434	-7.60733e-06	-3.42056e-08	0
435	-7.58582e-06	-3.44787e-08	0
436	-7.56352e-06	-3.44853e-08	0
437	-7.54111e-06	-3.47234e-08	0
438	-7.51859e-06	-3.48906e-08	0
439	-7.4954e-06	-3.50299e-08	0
440	-7.47107e-06	-3.5169e-08	0
441	-7.44619e-06	-3.52806e-08	0
442	-7.42154e-06	-3.53207e-08	0
443	-7.39699e-06	-3.54636e-08	0
444	-7.37179e-06	-3.56269e-08	0
445	-7.3456e-06	-3.56814e-08	0
446	-7.31885e-06	-3.57543e-08	0
447	-7.29226e-06	-3.57521e-08	0
448	-7.26585e-06	-3.57542e-08	0
449	-7.23902e-06	-3.58879e-08	0
450	-7.21127e-06	-3.61295e-08	0
451	-7.18266e-06	-3.61795e-08	0
452	-7.15375e-06	-3.59367e-08	0
453	-7.12512e-06	-3.57085e-08	0
454	-7.09662e-06	-3.5694e-08	0
455	-7.06736e-06	-3.58111e-08	0
456	-7.03708e-06	-3.59016e-08	0
457	-7.00623e-06	-3.58016e-08	0
458	-6.97556e-06	-3.56079e-08	0
459	-6.94528e-06	-3.54715e-08	0
460	-6.91482e-06	-3.54536e-08	0
461	-6.88352e-06	-3.54796e-08	0
462	-6.85139e-06	-3.54534e-08	0
463	-6.81935e-06	-3.53906e-08	0
464	-6.78801e-06	-3.52006e-08	0
465	-6.75703e-06	-3.49446e-08	0
466	-6.72553e-06	-3.47346e-08	0
467	-6.69284e-06	-3.43931e-08	0
468	-6.65958e-06	-3.4224e-08	0
469	-6.62694e-06	-3.42252e-08	0
470	-6.59522e-06	-3.40985e-08	0
471	-6.56401e-06	-3.37789e-08	0
472	-6.5327e-06	-3.35278e-08	0
473	-6.50073e-06	-3.33305e-08	0
474	-6.46831e-06	-3.32194e-08	0
475	-6.43587e-06	-3.30848e-08	0
476	-6.40379e-06	-3.26595e-08	0
477	-6.37245e-06	-3.21703e-08	0
478	-6.34164e-06	-3.17887e-08	0
479	-6.31084e-06	-3.16604e-08	0
480	-6.27969e-06	-3.16841e-08	0
481	-6.24806e-06	-3.15794e-08	0
482	-6.21634e-06	-3.1227e-08	0
483	-6.18497e-06	-3.0763e-08	0
484	-6.15422e-06	-3.03489e-08	0
485	-6.12403e-06	-3.00942e-08	0
486	-6.09407e-06	-2.99022e-08	0
487	-6.06405e-06	-2.96282e-08	0
488	-6.03396e-06	-2.92695e-08	0
489	-6.00397e-06	-2.89123e-08	0
490	-5.97426e-06	-2.85915e-08	0
491	-5.9449e-06	-2.83091e-08	0
492	-5.91588e-06	-2.79144e-08	0
493	-5.8872e-06	-2.74335e-08	0
494	-5.85891e-06	-2.70616e-08	0
495	-5.83055e-06	-2.66672e-08	0
496	-5.80244e-06	-2.63907e-08	0
497	-5.77468e-06	-2.6157e-08	0
498	-5.7472e-06	-2.58571e-08	0
499	-5.71992e-06	-2.54591e-08	0
500	-5.69284e-06	-2.50282e-08	0
501	-5.66616e-06	-2.46416e-08	0
502	-5.63999e-06	-2.43101e-08	0
503	-5.61429e-06	-2.39877e-08	0
504	-5.58889e-06	-2.36289e-08	0
505	-5.56373e-06	-2.32425e-08	0
506	-5.5388e-06	-2.28485e-08	0
507	-5.51416e-06	-2.24744e-08	0
508	-5.48988e-06	-2.21174e-08	0
509	-5.46597e-06	-2.17624e-08	0
510	-5.44247e-06	-2.14023e-08	0
511	-5.41927e-06	-2.09729e-08	0
512	-5.39639e-06	-2.05227e-08	0
513	-5.37389e-06	-2.01177e-08	0
514	-5.35155e-06	-1.96886e-08	0
515	-5.32966e-06	-1.93274e-08	0
516	-5.30828e-06	-1.90152e-08	0
517	-5.28725e-06	-1.86637e-08	0
518	-5.26642e-06	-1.82478e-08	0
519	-5.24579e-06	-1.7808e-08	0
520	-5.22551e-06	-1.73929e-08	0
521	-5.20567e-06	-1.70063e-08	0
522	-5.18628e-06	-1.66217e-08	0
523	-5.16721e-06	-1.62109e-08	0
524	-5.14841e-06	-1.57815e-08	0
525	-5.1299e-06	-1.53557e-08	0
526	-5.11173e-06	-1.49313e-08	0
527	-5.09391e-06	-1.45032e-08	0
528	-5.07639e-06	-1.40773e-08	0
529	-5.05913e-06	-1.36457e-08	0
530	-5.04215e-06	-1.31865e-08	0
531	-5.02548e-06	-1.27346e-08	0
532	-5.00912e-06	-1.22885e-08	0
533	-4.99308e-06	-1.18425e-08	0
534	-4.97726e-06	-1.13449e-08	0
535	-4.96171e-06	-1.08506e-08	0
536	-4.94648e-06	-1.03926e-08	0
537	-4.93146e-06	-9.94504e-09	0
538	-4.9167e-06	-9.49105e-09	0
539	-4.90227e-06	-9.02657e-09	0
540	-4.88812e-06	-8.54517e-09	0
541	-4.87419e-06	-8.05175e-09	0
542	-4.86044e-06	-7.55649e-09	0
543	-4.84691e-06	-7.06167e-09	0
544	-4.83367e-06	-6.56879e-09	0
545	-4.82069e-06	-6.07646e-09	0
546	-4.80793e-06	-5.57264e-09	0
547	-4.79535e-06	-5.06927e-09	0
548	-4.78297e-06	-4.56744e-09	0
549	-4.77081e-06	-4.06637e-09	0
550	-4.75887e-06	-3.56023e-09	0
551	-4.74712e-06	-3.04775e-09	0
552	-4.73555e-06	-2.53114e-09	0
553	-4.72416e-06	-2.01828e-09	0
554	-4.71293e-06	-1.50814e-09	0
555	-4.70189e-06	-9.96715e-10	0
556	-4.69103e-06	-4.81313e-10	0
557	-4.68032e-06	2.89946e-11	0
558	-4.66977e-06	5.31864e-10	0
559	-4.65936e-06	1.03068e-09	0
560	-4.64905e-06	1.53149e-09	0
561	-4.63878e-06	2.05076e-09	0
562	-4.62873e-06	2.56106e-09	0
563	-4.6189e-06	3.05049e-09	0
564	-4.60924e-06	3.52126e-09	0
565	-4.59965e-06	3.98747e-09	0
566	-4.59006e-06	4.47659e-09	0
567	-4.58059e-06	4.96254e-09	0
568	-4.57134e-06	5.41759e-09	0
569	-4.56225e-06	5.84653e-09	0
570	-4.55321e-06	6.27163e-09	0
571	-4.54418e-06	6.70559e-09	0
572	-4.53523e-06	7.14013e-09	0
573	-4.52639e-06	7.55837e-09	0
574	-4.51768e-06	7.95883e-09	0
575	-4.50908e-06	8.3387e-09	0
576	-4.50051e-06	8.71655e-09	0
577	-4.49198e-06	9.09009e-09	0
578	-4.48351e-06	9.45553e-09	0
579	-4.47514e-06	9.8057e-09	0
580	-4.46683e-06	1.01473e-08	0
581	-4.45858e-06	1.04812e-08	0
582	-4.45038e-06	1.08011e-08	0
583	-4.44223e-06	1.11101e-08	0
584	-4.43413e-06	1.14049e-08	0
585	-4.42605e-06	1.17004e-08	0
586	-4.41798e-06	1.1994e-08	0
587	-4.40995e-06	1.22787e-08	0
588	-4.40202e-06	1.2539e-08	0
589	-4.39416e-06	1.278e-08	0
590	-4.3863e-06	1.30187e-08	0
591	-4.37843e-06	1.32559e-08	0
592	-4.37054e-06	1.34946e-08	0
593	-4.36273e-06	1.37144e-08	0
594	-4.35496e-06	1.39192e-08	0
595	-4.34721e-06	1.41172e-08	0
596	-4.33946e-06	1.4311e-08	0
597	-4.33172e-06	1.44992e-08	0
598	-4.32398e-06	1.46774e-08	0
599	-4.31626e-06	1.48448e-08	0
600	-4.30853e-06	1.50061e-08	0
601	-4.30079e-06	1.5165e-08	0
602	-4.29309e-06	1.53174e-08	0
603	-4.2854e-06	1.54654e-08	0
604	-4.27768e-06	1.56093e-08	0
605	-4.26997e-06	1.57448e-08	0
606	-4.26225e-06	1.58816e-08	0
607	-4.25455e-06	1.60101e-08	0
608	-4.24685e-06	1.61294e-08	0
609	-4.23912e-06	1.62514e-08	0
610	-4.23139e-06	1.63671e-08	0
611	-4.22368e-06	1.64763e-08	0
612	-4.21595e-06	1.65784e-08	0
613	-4.20819e-06	1.66787e-08	0
614	-4.20042e-06	1.67748e-08	0
615	-4.19264e-06	1.68661e-08	0
616	-4.18484e-06	1.69543e-08	0
617	-4.1771e-06	1.70176e-08	0
618	-4.16933e-06	1.70777e-08	0
619	-4.16152e-06	1.71381e-08	0
620	-4.15368e-06	1.71974e-08	0
621	-4.14583e-06	1.72514e-08	0
622	-4.13798e-06	1.72966e-08	0
623	-4.13013e-06	1.73373e-08	0
624	-4.12225e-06	1.73754e-08	0
625	-4.11436e-06	1.74145e-08	0
626	-4.10649e-06	1.74487e-08	0
627	-4.09855e-06	1.74959e-08	0
628	-4.09061e-06	1.75454e-08	0
629	-4.08269e-06	1.75935e-08	0
630	-4.0748e-06	1.76346e-08	0
631	-4.06688e-06	1.76768e-08	0
632	-4.05891e-06	1.77224e-08	0
633	-4.05091e-06	1.77707e-08	0
634	-4.04296e-06	1.78027e-08	0
635	-4.03497e-06	1.78362e-08	0
636	-4.02701e-06	1.78582e-08	0
637	-4.019e-06	1.78771e-08	0
638	-4.01097e-06	1.7887e-08	0
639	-4.0029e-06	1.7895e-08	0
640	-3.99494e-06	1.78748e-08	0
641	-3.98695e-06	1.78506e-08	0
642	-3.97891e-06	1.78246e-08	0
643	-3.97083e-06	1.77997e-08	0
644	-3.96276e-06	1.77746e-08	0
645	-3.95471e-06	1.77501e-08	0
646	-3.94666e-06	1.77302e-08	0
647	-3.93861e-06	1.77126e-08	0
648	-3.93053e-06	1.77165e-08	0
649	-3.92247e-06	1.77156e-08	0
650	-3.91443e-06	1.77253e-08	0
651	-3.90637e-06	1.77482e-08	0
652	-3.89835e-06	1.77617e-08	0
653	-3.89037e-06	1.77576e-08	0
654	-3.88233e-06	1.7767e-08	0
655	-3.87429e-06	1.77768e-08	0
656	-3.86633e-06	1.77639e-08	0
657	-3.85838e-06	1.77318e-08	0
658	-3.85043e-06	1.76826e-08	0
659	-3.84243e-06	1.76372e-08	0
660	-3.83453e-06	1.75707e-08	0
661	-3.82665e-06	1.74986e-08	0
662	-3.81877e-06	1.74199e-08	0
663	-3.81089e-06	1.73407e-08	0
664	-3.80304e-06	1.72706e-08	0
665	-3.79521e-06	1.72132e-08	0
666	-3.78742e-06	1.71579e-08	0
667	-3.77967e-06	1.71026e-08	0
668	-3.77193e-06	1.70478e-08	0
669	-3.76423e-06	1.69903e-08	0
670	-3.75662e-06	1.69177e-08	0
671	-3.74895e-06	1.68597e-08	0
672	-3.74134e-06	1.67801e-08	0
673	-3.73377e-06	1.66945e-08	0
674	-3.72624e-06	1.66066e-08	0
675	-3.71881e-06	1.6487e-08	0
676	-3.71138e-06	1.63701e-08	0
677	-3.70399e-06	1.62522e-08	0
678	-3.69665e-06	1.61354e-08	0
679	-3.68937e-06	1.6018e-08	0
680	-3.68213e-06	1.58992e-08	0
681	-3.67494e-06	1.57767e-08	0
682	-3.6678e-06	1.56526e-08	0
683	-3.66068e-06	1.55352e-08	0
684	-3.65365e-06	1.54049e-08	0
685	-3.64666e-06	1.52811e-08	0
686	-3.63988e-06	1.51086e-08	0
687	-3.63304e-06	1.49677e-08	0
688	-3.62622e-06	1.48426e-08	0
689	-3.6194e-06	1.47426e-08	0
690	-3.61274e-06	1.46178e-08	0
691	-3.6062e-06	1.44836e-08	0
692	-3.59972e-06	1.43497e-08	0
693	-3.59322e-06	1.42555e-08	0
694	-3.58685e-06	1.4157e-08	0
695	-3.58053e-06	1.4067e-08	0
696	-3.57429e-06	1.39872e-08	0
697	-3.56814e-06	1.39159e-08	0
698	-3.56201e-06	1.38662e-08	0
699	-3.55604e-06	1.38075e-08	0
700	-3.55015e-06	1.37642e-08	0
701	-3.54432e-06	1.37349e-08	0
702	-3.53855e-06	1.3719e-08	0
703	-3.53286e-06	1.37099e-08	0
704	-3.52727e-06	1.37046e-08	0
705	-3.52177e-06	1.37136e-08	0
706	-3.51637e-06	1.3729e-08	0
707	-3.51107e-06	1.37384e-08	0
708	-3.50584e-06	1.37564e-08	0
709	-3.50076e-06	1.37846e-08	0
710	-3.49569e-06	1.38163e-08	0
711	-3.49067e-06	1.38502e-08	0
712	-3.48585e-06	1.38769e-08	0
713	-3.48117e-06	1.39069e-08	0
714	-3.47657e-06	1.39222e-08	0
715	-3.47197e-06	1.39437e-08	0
716	-3.46746e-06	1.39741e-08	0
717	-3.46308e-06	1.40111e-08	0
718	-3.45885e-06	1.40276e-08	0
719	-3.45467e-06	1.40298e-08	0
720	-3.45057e-06	1.40325e-08	0
721	-3.44657e-06	1.40334e-08	0
722	-3.44275e-06	1.40464e-08	0
723	-3.439e-06	1.40428e-08	0
724	-3.43523e-06	1.40156e-08	0
725	-3.43154e-06	1.39956e-08	0
726	-3.42803e-06	1.39803e-08	0
727	-3.42463e-06	1.39557e-08	0
728	-3.42125e-06	1.39109e-08	0
729	-3.41795e-06	1.38563e-08	0
730	-3.41476e-06	1.38073e-08	0
731	-3.41161e-06	1.37418e-08	0
732	-3.40859e-06	1.36772e-08	0
733	-3.4056e-06	1.35949e-08	0
734	-3.40269e-06	1.35017e-08	0
735	-3.39987e-06	1.34129e-08	0
736	-3.39709e-06	1.33008e-08	0
737	-3.39441e-06	1.31866e-08	0
738	-3.39177e-06	1.30524e-08	0
739	-3.3892e-06	1.29056e-08	0
740	-3.38669e-06	1.2753e-08	0
741	-3.38424e-06	1.26005e-08	0
742	-3.38185e-06	1.24403e-08	0
743	-3.3795e-06	1.22572e-08	0
744	-3.37716e-06	1.20428e-08	0
745	-3.37491e-06	1.18379e-08	0
746	-3.37271e-06	1.16194e-08	0
747	-3.37059e-06	1.14186e-08	0
748	-3.36851e-06	1.11969e-08	0
749	-3.36643e-06	1.09413e-08	0
750	-3.36438e-06	1.06775e-08	0
751	-3.36239e-06	1.04219e-08	0
752	-3.36046e-06	1.01635e-08	0
753	-3.35858e-06	9.89228e-09	0
754	-3.35674e-06	9.6065e-09	0
755	-3.35492e-06	9.31379e-09	0
756	-3.35314e-06	9.02057e-09	0
757	-3.35138e-06	8.71742e-09	0
758	-3.34969e-06	8.42298e-09	0
759	-3.34802e-06	8.12226e-09	0
760	-3.34638e-06	7.80333e-09	0
761	-3.34477e-06	7.48924e-09	0
762	-3.34318e-06	7.16369e-09	0
763	-3.34164e-06	6.84787e-09	0
764	-3.34011e-06	6.52007e-09	0
765	-3.33862e-06	6.19829e-09	0
766	-3.33715e-06	5.87167e-09	0
767	-3.33571e-06	5.53208e-09	0
768	-3.3343e-06	5.19092e-09	0
769	-3.33291e-06	4.8609e-09	0
770	-3.33155e-06	4.53063e-09	0
771	-3.33021e-06	4.19133e-09	0
772	-3.32889e-06	3.85113e-09	0
773	-3.3276e-06	3.51157e-09	0
774	-3.32632e-06	3.16371e-09	0
775	-3.3251e-06	2.80781e-09	0
776	-3.32385e-06	2.48654e-09	0
777	-3.32263e-06	2.15692e-09	0
778	-3.32146e-06	1.80533e-09	0
779	-3.32032e-06	1.44928e-09	0
780	-3.31918e-06	1.10887e-09	0
781	-3.31804e-06	7.58014e-10	0
782	-3.31696e-06	4.30856e-10	0
783	-3.31586e-06	1.04336e-10	0
784	-3.31478e-06	-2.42447e-10	0
785	-3.31374e-06	-5.90788e-10	0
786	-3.31273e-06	-9.31695e-10	0
787	-3.31173e-06	-1.26707e-09	0
788	-3.31074e-06	-1.6035e-09	0
789	-3.30975e-06	-1.93921e-09	0
790	-3.30879e-06	-2.27747e-09	0
791	-3.30786e-06	-2.59545e-09	0
792	-3.30695e-06	-2.91531e-09	0
793	-3.30604e-06	-3.25976e-09	0
794	-3.30515e-06	-3.58684e-09	0
795	-3.30427e-06	-3.89724e-09	0
796	-3.30341e-06	-4.20827e-09	0
797	-3.30258e-06	-4.5227e-09	0
798	-3.30176e-06	-4.83716e-09	0
799	-3.30096e-06	-5.15215e-09	0
800	-3.30016e-06	-5.45798e-09	0
801	-3.29939e-06	-5.75495e-09	0
802	-3.29863e-06	-6.04661e-09	0
803	-3.2979e-06	-6.34431e-09	0
804	-3.29718e-06	-6.63694e-09	0
805	-3.29648e-06	-6.92036e-09	0
806	-3.29579e-06	-7.20129e-09	0
807	-3.29513e-06	-7.48078e-09	0
808	-3.29448e-06	-7.75421e-09	0
809	-3.29385e-06	-8.02088e-09	0
810	-3.29324e-06	-8.2836e-09	0
811	-3.29265e-06	-8.54502e-09	0
812	-3.29208e-06	-8.80154e-09	0
813	-3.29152e-06	-9.05071e-09	0
814	-3.29099e-06	-9.29893e-09	0
815	-3.29048e-06	-9.54052e-09	0
816	-3.28999e-06	-9.77464e-09	0
817	-3.28952e-06	-1.00097e-08	0
818	-3.28907e-06	-1.02406e-08	0
819	-3.28865e-06	-1.0467e-08	0
820	-3.28824e-06	-1.06851e-08	0
821	-3.28786e-06	-1.08996e-08	0
822	-3.2875e-06	-1.11146e-08	0
823	-3.28717e-06	-1.13237e-08	0
824	-3.28686e-06	-1.15309e-08	0
825	-3.28656e-06	-1.17299e-08	0
826	-3.2863e-06	-1.19256e-08	0
827	-3.28606e-06	-1.21231e-08	0
828	-3.28583e-06	-1.23151e-08	0
829	-3.28564e-06	-1.24974e-08	0
830	-3.28547e-06	-1.2679e-08	0
831	-3.28532e-06	-1.28681e-08	0
832	-3.2852e-06	-1.30469e-08	0
833	-3.28509e-06	-1.32252e-08	0
834	-3.28501e-06	-1.33941e-08	0
835	-3.28495e-06	-1.35609e-08	0
836	-3.28492e-06	-1.37311e-08	0
837	-3.28491e-06	-1.39016e-08	0
838	-3.28492e-06	-1.40718e-08	0
839	-3.28495e-06	-1.42309e-08	0
840	-3.285e-06	-1.43913e-08	0
841	-3.28508e-06	-1.45485e-08	0
842	-3.28518e-06	-1.47141e-08	0
843	-3.2853e-06	-1.48756e-08	0
844	-3.28544e-06	-1.50347e-08	0
845	-3.28559e-06	-1.51833e-08	0
846	-3.28576e-06	-1.53332e-08	0
847	-3.28596e-06	-1.54924e-08	0
848	-3.28618e-06	-1.56505e-08	0
849	-3.28641e-06	-1.58014e-08	0
850	-3.28665e-06	-1.59487e-08	0
851	-3.28691e-06	-1.6099e-08	0
852	-3.28719e-06	-1.62494e-08	0
853	-3.28748e-06	-1.64066e-08	0
854	-3.28779e-06	-1.65568e-08	0
855	-3.28811e-06	-1.67011e-08	0
856	-3.28844e-06	-1.68457e-08	0
857	-3.28878e-06	-1.69917e-08	0
858	-3.28914e-06	-1.71544e-08	0
859	-3.2895e-06	-1.73047e-08	0
860	-3.28988e-06	-1.74507e-08	0
861	-3.29026e-06	-1.75927e-08	0
862	-3.29066e-06	-1.77447e-08	0
863	-3.29105e-06	-1.78905e-08	0
864	-3.29146e-06	-1.80441e-08	0
865	-3.29187e-06	-1.81929e-08	0
866	-3.29229e-06	-1.8335e-08	0
867	-3.29271e-06	-1.84833e-08	0
868	-3.29314e-06	-1.86313e-08	0
869	-3.29357e-06	-1.87784e-08	0
870	-3.29401e-06	-1.89234e-08	0
871	-3.29444e-06	-1.90698e-08	0
872	-3.29487e-06	-1.92175e-08	0
873	-3.29531e-06	-1.93623e-08	0
874	-3.29575e-06	-1.95058e-08	0
875	-3.29618e-06	-1.96487e-08	0
876	-3.29662e-06	-1.9792e-08	0
877	-3.29705e-06	-1.994e-08	0
878	-3.29748e-06	-2.00771e-08	0
879	-3.29791e-06	-2.02103e-08	0
880	-3.29833e-06	-2.03423e-08	0
881	-3.29876e-06	-2.04846e-08	0
882	-3.29917e-06	-2.06336e-08	0
883	-3.29958e-06	-2.07705e-08	0
884	-3.29998e-06	-2.08954e-08	0
885	-3.30038e-06	-2.10179e-08	0
886	-3.30078e-06	-2.11534e-08	0
887	-3.30117e-06	-2.12822e-08	0
888	-3.30155e-06	-2.14121e-08	0
889	-3.30193e-06	-2.15292e-08	0
890	-3.30229e-06	-2.16504e-08	0
891	-3.30266e-06	-2.17711e-08	0
892	-3.30301e-06	-2.18889e-08	0
893	-3.30335e-06	-2.19963e-08	0
894	-3.30369e-06	-2.21104e-08	0
895	-3.30402e-06	-2.22211e-08	0
896	-3.30434e-06	-2.23271e-08	0
897	-3.30465e-06	-2.2428e-08	0
898	-3.30496e-06	-2.25246e-08	0
899	-3.30526e-06	-2.26207e-08	0
900	-3.30555e-06	-2.27151e-08	0
901	-3.30583e-06	-2.28055e-08	0
902	-3.3061e-06	-2.28902e-08	0
903	-3.30636e-06	-2.29709e-08	0
904	-3.30662e-06	-2.30554e-08	0
905	-3.30687e-06	-2.31236e-08	0
906	-3.30712e-06	-2.31854e-08	0
907	-3.30735e-06	-2.32611e-08	0
908	-3.30757e-06	-2.33322e-08	0
909	-3.30779e-06	-2.3382e-08	0
910	-3.30802e-06	-2.34259e-08	0
911	-3.30821e-06	-2.34886e-08	0
912	-3.3084e-06	-2.35504e-08	0
913	-3.30859e-06	-2.358e-08	0
914	-3.30878e-06	-2.36086e-08	0
915	-3.30897e-06	-2.36386e-08	0
916	-3.30915e-06	-2.36729e-08	0
917	-3.30932e-06	-2.37039e-08	0
918	-3.30948e-06	-2.37253e-08	0
919	-3.30964e-06	-2.37352e-08	0
920	-3.3098e-06	-2.37392e-08	0
921	-3.30996e-06	-2.37434e-08	0
922	-3.31011e-06	-2.37476e-08	0
923	-3.31026e-06	-2.37497e-08	0
924	-3.3104e-06	-2.37552e-08	0
925	-3.31054e-06	-2.37366e-08	0
926	-3.31068e-06	-2.3709e-08	0
927	-3.31083e-06	-2.3684e-08	0
928	-3.31097e-06	-2.366e-08	0
929	-3.3111e-06	-2.36407e-08	0
930	-3.31124e-06	-2.36222e-08	0
931	-3.31137e-06	-2.35923e-08	0
932	-3.3115e-06	-2.35409e-08	0
933	-3.31163e-06	-2.34775e-08	0
934	-3.31177e-06	-2.34322e-08	0
935	-3.31191e-06	-2.3389e-08	0
936	-3.31205e-06	-2.33473e-08	0
937	-3.31219e-06	-2.32812e-08	0
938	-3.31232e-06	-2.31949e-08	0
939	-3.31246e-06	-2.3136e-08	0
940	-3.3126e-06	-2.30604e-08	0
941	-3.31275e-06	-2.30194e-08	0
942	-3.3129e-06	-2.29549e-08	0
943	-3.31305e-06	-2.28721e-08	0
944	-3.31319e-06	-2.27673e-08	0
945	-3.31334e-06	-2.26641e-08	0
946	-3.31351e-06	-2.25879e-08	0
947	-3.31366e-06	-2.25375e-08	0
948	-3.31381e-06	-2.24696e-08	0
949	-3.31397e-06	-2.2369e-08	0
950	-3.31414e-06	-2.2247e-08	0
951	-3.31431e-06	-2.21306e-08	0
952	-3.31448e-06	-2.20349e-08	0
953	-3.31466e-06	-2.1957e-08	0
954	-3.31484e-06	-2.18933e-08	0
955	-3.31502e-06	-2.17869e-08	0
956	-3.31519e-06	-2.16725e-08	0
957	-3.31537e-06	-2.15485e-08	0
958	-3.31555e-06	-2.14412e-08	0
959	-3.31574e-06	-2.13552e-08	0