# Time	forces(pressure, viscous) moment(pressure, viscous)
1	(((13.5092 5.34979 -7.57396e-19) (1.73524 -0.0129156 -4.93478e-23)) ((-0.0679424 0.171567 -8.38451e-08) (0.000164028 0.0220376 -0.000797989)))
2	(((22.7216 2.88845 -1.42214e-18) (1.11688 -0.00710145 -6.48177e-23)) ((-0.0366833 0.288565 3.64069e-08) (9.01884e-05 0.0141844 -0.000457175)))
3	(((11.6264 -2.95583 -1.30737e-18) (0.848252 -0.00508463 -2.26045e-23)) ((0.037539 0.147655 2.16872e-07) (6.45748e-05 0.0107728 -0.000338845)))
4	(((-8.41969 -4.95003 -7.15881e-19) (0.781674 -0.00583309 -5.57933e-24)) ((0.0628654 -0.10693 2.59929e-07) (7.40803e-05 0.00992726 -0.000368655)))
5	(((-14.4634 -1.84794 -3.41013e-19) (0.793952 -0.00718275 -1.148e-23)) ((0.0234688 -0.183685 1.55775e-07) (9.1221e-05 0.0100832 -0.000430908)))
6	(((-0.805618 1.33253 -5.13292e-19) (0.807698 -0.00794835 -2.6472e-23)) ((-0.0169231 -0.0102313 5.36434e-08) (0.000100944 0.0102578 -0.00046709)))
7	(((14.7532 1.29784 -8.97245e-19) (0.801811 -0.00808681 -3.3761e-23)) ((-0.0164826 0.187365 5.89559e-08) (0.000102702 0.010183 -0.000473272)))
8	(((15.5939 -0.990102 -1.05207e-18) (0.784423 -0.00799224 -2.76387e-23)) ((0.0125743 0.198042 1.27899e-07) (0.000101501 0.00996218 -0.000468003)))
9	(((3.87058 -2.44754 -9.00063e-19) (0.764883 -0.00792002 -1.77868e-23)) ((0.0310838 0.0491564 1.62877e-07) (0.000100584 0.00971402 -0.000464806)))
10	(((-5.2674 -1.70046 -6.95216e-19) (0.746437 -0.00790295 -1.49807e-23)) ((0.0215958 -0.0668959 1.26004e-07) (0.000100368 0.00947975 -0.000464883)))
11	(((-3.08396 -0.0268421 -6.56292e-19) (0.729431 -0.00790219 -1.97604e-23)) ((0.000340895 -0.0391662 7.19175e-08) (0.000100358 0.00926377 -0.000463296)))
12	(((5.66747 0.385896 -7.74923e-19) (0.713703 -0.00789304 -2.49808e-23)) ((-0.00490088 0.0719769 6.65613e-08) (0.000100242 0.00906402 -0.000459231)))
13	(((10.3467 -0.670441 -8.83289e-19) (0.698961 -0.00786907 -2.51782e-23)) ((0.0085146 0.131403 1.15543e-07) (9.99372e-05 0.0088768 -0.000454448)))
14	(((7.45298 -1.8005 -8.83453e-19) (0.684821 -0.00783293 -2.15341e-23)) ((0.0228663 0.0946528 1.53614e-07) (9.94782e-05 0.00869723 -0.000450073)))
15	(((1.94395 -1.74191 -8.12353e-19) (0.671091 -0.00778679 -1.87791e-23)) ((0.0221223 0.0246881 1.42178e-07) (9.88922e-05 0.00852286 -0.000446794)))
16	(((0.327906 -0.833031 -7.70488e-19) (0.657871 -0.00772034 -1.93435e-23)) ((0.0105795 0.0041644 9.68172e-08) (9.80483e-05 0.00835496 -0.000443906)))
17	(((3.15538 -0.0476112 -7.90719e-19) (0.645336 -0.00764462 -2.15986e-23)) ((0.000604663 0.0400733 6.96899e-08) (9.70867e-05 0.00819577 -0.000439646)))
18	(((6.37537 -0.273047 -8.3375e-19) (0.633519 -0.00757921 -2.26854e-23)) ((0.0034677 0.0809672 8.60489e-08) (9.6256e-05 0.0080457 -0.000433884)))
19	(((6.6001 -1.03862 -8.47178e-19) (0.622287 -0.00752582 -2.18165e-23)) ((0.0131905 0.0838213 1.25157e-07) (9.55779e-05 0.00790305 -0.000427955)))
20	(((4.55238 -1.58666 -8.29049e-19) (0.611459 -0.00747527 -2.04421e-23)) ((0.0201505 0.0578152 1.45701e-07) (9.49359e-05 0.00776552 -0.00042279)))
21	(((3.02982 -1.39385 -8.1005e-19) (0.600969 -0.00741585 -2.01402e-23)) ((0.0177019 0.0384787 1.30847e-07) (9.41813e-05 0.00763231 -0.000418404)))
22	(((3.49958 -0.776191 -8.13065e-19) (0.590872 -0.00733775 -2.09139e-23)) ((0.00985763 0.0444447 9.85295e-08) (9.31894e-05 0.00750408 -0.000414149)))
23	(((4.97515 -0.338592 -8.30612e-19) (0.58122 -0.00724981 -2.16497e-23)) ((0.00430011 0.0631844 8.32145e-08) (9.20726e-05 0.00738149 -0.000409258)))
24	(((5.70841 -0.496088 -8.40805e-19) (0.571989 -0.00716927 -2.15583e-23)) ((0.00630032 0.0724968 9.91434e-08) (9.10497e-05 0.00726427 -0.000403623)))
25	(((5.18772 -0.995282 -8.34958e-19) (0.563107 -0.00710344 -2.09336e-23)) ((0.0126401 0.065884 1.2534e-07) (9.02137e-05 0.00715145 -0.000397896)))
26	(((4.34979 -1.3118 -8.24117e-19) (0.554504 -0.00704529 -2.05692e-23)) ((0.0166598 0.0552424 1.36125e-07) (8.94752e-05 0.00704219 -0.000392654)))
27	(((4.17797 -1.18047 -8.22014e-19) (0.546165 -0.00698103 -2.07991e-23)) ((0.014992 0.0530602 1.23621e-07) (8.86591e-05 0.00693629 -0.000387827)))
28	(((4.71425 -0.834129 -8.30005e-19) (0.538114 -0.00690349 -2.12656e-23)) ((0.0105934 0.059871 1.04644e-07) (8.76744e-05 0.00683404 -0.000383067)))
29	(((5.30042 -0.562818 -8.39098e-19) (0.530362 -0.00681788 -2.14469e-23)) ((0.00714778 0.0673153 9.70871e-08) (8.65871e-05 0.0067356 -0.00037805)))
30	(((5.39888 -0.606178 -8.41099e-19) (0.522886 -0.00673534 -2.12296e-23)) ((0.00769847 0.0685658 1.06142e-07) (8.55388e-05 0.00664065 -0.000372755)))
31	(((5.10185 -0.873174 -8.3708e-19) (0.515647 -0.00666313 -2.09323e-23)) ((0.0110893 0.0647935 1.20108e-07) (8.46218e-05 0.00654872 -0.000367457)))
32	(((4.84272 -1.09026 -8.33352e-19) (0.508618 -0.00659872 -2.08932e-23)) ((0.0138463 0.0615025 1.25694e-07) (8.38038e-05 0.00645945 -0.000362388)))
33	(((4.87197 -1.07833 -8.33831e-19) (0.501792 -0.00653332 -2.11253e-23)) ((0.0136948 0.061874 1.19869e-07) (8.29732e-05 0.00637276 -0.000357488)))
34	(((5.13553 -0.871148 -8.38396e-19) (0.495175 -0.00646033 -2.13831e-23)) ((0.0110636 0.0652213 1.09967e-07) (8.20462e-05 0.00628872 -0.000352595)))
35	(((5.37228 -0.689145 -8.42839e-19) (0.488769 -0.00638066 -2.14528e-23)) ((0.00875214 0.068228 1.05447e-07) (8.10344e-05 0.00620737 -0.000347641)))
36	(((5.42643 -0.685734 -8.44261e-19) (0.482562 -0.00630121 -2.13467e-23)) ((0.00870882 0.0689157 1.08368e-07) (8.00253e-05 0.00612854 -0.000342662)))
37	(((5.35971 -0.820653 -8.43585e-19) (0.476534 -0.00622774 -2.12401e-23)) ((0.0104223 0.0680683 1.14365e-07) (7.90923e-05 0.00605198 -0.000337744)))
38	(((5.29182 -0.941306 -8.42628e-19) (0.470668 -0.00616002 -2.12675e-23)) ((0.0119546 0.0672061 1.17117e-07) (7.82323e-05 0.00597749 -0.000332932)))
39	(((5.30437 -0.942385 -8.42787e-19) (0.464959 -0.00609322 -2.141e-23)) ((0.0119683 0.0673655 1.1496e-07) (7.73839e-05 0.00590497 -0.000328177)))
40	(((5.39069 -0.851726 -8.44336e-19) (0.459405 -0.00602317 -2.15507e-23)) ((0.0108169 0.0684617 1.10825e-07) (7.64943e-05 0.00583445 -0.000323414)))
41	(((5.48727 -0.769677 -8.4621e-19) (0.454007 -0.0059498 -2.16065e-23)) ((0.00977489 0.0696883 1.08478e-07) (7.55624e-05 0.00576589 -0.000318639)))
42	(((5.55241 -0.761072 -8.47682e-19) (0.448759 -0.0058763 -2.15926e-23)) ((0.00966562 0.0705157 1.08912e-07) (7.46291e-05 0.00569924 -0.0003139)))
43	(((5.58324 -0.808329 -8.48706e-19) (0.443649 -0.00580542 -2.15801e-23)) ((0.0102658 0.0709072 1.10493e-07) (7.37288e-05 0.00563434 -0.000309248)))
44	(((5.59298 -0.85287 -8.49378e-19) (0.438669 -0.00573719 -2.16157e-23)) ((0.0108314 0.0710308 1.10661e-07) (7.28623e-05 0.0055711 -0.000304683)))
45	(((5.60055 -0.848373 -8.4993e-19) (0.433812 -0.00566958 -2.16871e-23)) ((0.0107743 0.071127 1.09413e-07) (7.20037e-05 0.00550942 -0.000300163)))
46	(((5.62323 -0.818361 -8.5054e-19) (0.429077 -0.00560112 -2.17523e-23)) ((0.0103932 0.071415 1.0771e-07) (7.11342e-05 0.00544927 -0.00029564)))
47	(((5.66272 -0.797645 -8.51307e-19) (0.424459 -0.00553208 -2.17866e-23)) ((0.0101301 0.0719166 1.06652e-07) (7.02574e-05 0.00539063 -0.000291115)))
48	(((5.7128 -0.795254 -8.52413e-19) (0.419957 -0.00546359 -2.17992e-23)) ((0.0100997 0.0725526 1.0674e-07) (6.93875e-05 0.00533346 -0.000286625)))
49	(((5.75639 -0.803984 -8.53546e-19) (0.415565 -0.00539635 -2.18139e-23)) ((0.0102106 0.0731062 1.06623e-07) (6.85336e-05 0.00527768 -0.000282201)))
50	(((5.78848 -0.816819 -8.54591e-19) (0.411277 -0.00533004 -2.18411e-23)) ((0.0103736 0.0735137 1.05474e-07) (6.76915e-05 0.00522321 -0.000277848)))
51	(((5.80713 -0.805419 -8.55346e-19) (0.407088 -0.00526394 -2.18727e-23)) ((0.0102288 0.0737506 1.04434e-07) (6.68521e-05 0.00517002 -0.000273541)))
52	(((5.82161 -0.796479 -8.55813e-19) (0.402996 -0.00519771 -2.18954e-23)) ((0.0101153 0.0739345 1.03243e-07) (6.60109e-05 0.00511805 -0.000269251)))
53	(((5.84543 -0.795631 -8.56358e-19) (0.398999 -0.00513178 -2.1905e-23)) ((0.0101045 0.074237 1.02751e-07) (6.51736e-05 0.00506728 -0.000264981)))
54	(((5.87869 -0.798268 -8.57032e-19) (0.395092 -0.00506671 -2.19075e-23)) ((0.010138 0.0746593 1.02312e-07) (6.43472e-05 0.00501767 -0.000260742)))
55	(((5.91441 -0.791197 -8.57812e-19) (0.391273 -0.00500249 -2.19102e-23)) ((0.0100482 0.075113 1.0182e-07) (6.35317e-05 0.00496916 -0.000256546)))
56	(((5.9454 -0.79959 -8.58697e-19) (0.387538 -0.00493884 -2.19151e-23)) ((0.0101548 0.0755066 1.0009e-07) (6.27232e-05 0.00492173 -0.000252399)))
57	(((5.96885 -0.794219 -8.59464e-19) (0.383885 -0.00487537 -2.19176e-23)) ((0.0100866 0.0758043 9.89268e-08) (6.19173e-05 0.00487534 -0.000248302)))
58	(((5.99022 -0.790224 -8.60128e-19) (0.38031 -0.00481207 -2.19144e-23)) ((0.0100358 0.0760757 9.81616e-08) (6.11133e-05 0.00482994 -0.000244236)))
59	(((6.01206 -0.788531 -8.60666e-19) (0.376813 -0.00474918 -2.19053e-23)) ((0.0100143 0.0763532 9.737e-08) (6.03146e-05 0.00478552 -0.000240197)))
60	(((6.03749 -0.784372 -8.61187e-19) (0.373389 -0.00468689 -2.18921e-23)) ((0.00996152 0.0766761 9.70308e-08) (5.95235e-05 0.00474204 -0.000236188)))
61	(((6.06648 -0.788936 -8.61792e-19) (0.370037 -0.00462527 -2.18763e-23)) ((0.0100195 0.0770443 9.57235e-08) (5.87409e-05 0.00469947 -0.000232213)))
62	(((6.09528 -0.787507 -8.62449e-19) (0.366755 -0.00456419 -2.18582e-23)) ((0.0100013 0.0774101 9.46092e-08) (5.79652e-05 0.00465778 -0.00022828)))
63	(((6.12118 -0.783039 -8.63071e-19) (0.36354 -0.00450345 -2.18374e-23)) ((0.00994459 0.077739 9.34396e-08) (5.71938e-05 0.00461696 -0.000224379)))
64	(((6.14477 -0.783483 -8.6368e-19) (0.360391 -0.00444297 -2.18137e-23)) ((0.00995023 0.0780386 9.21115e-08) (5.64258e-05 0.00457697 -0.000220511)))
65	(((6.16613 -0.78089 -8.64208e-19) (0.357307 -0.00438283 -2.17872e-23)) ((0.00991731 0.0783098 9.15808e-08) (5.5662e-05 0.00453779 -0.000216676)))
66	(((6.18927 -0.782574 -8.64664e-19) (0.354284 -0.00432323 -2.1758e-23)) ((0.00993868 0.0786038 9.07837e-08) (5.4905e-05 0.0044994 -0.00021287)))
67	(((6.21669 -0.786589 -8.65163e-19) (0.351322 -0.00426416 -2.17252e-23)) ((0.00998968 0.078952 8.92984e-08) (5.41549e-05 0.00446179 -0.000209103)))
68	(((6.24476 -0.782508 -8.65639e-19) (0.348419 -0.00420556 -2.16887e-23)) ((0.00993785 0.0793084 8.82114e-08) (5.34106e-05 0.00442492 -0.000205373)))
69	(((6.27222 -0.777676 -8.66094e-19) (0.345574 -0.00414737 -2.16482e-23)) ((0.00987649 0.0796572 8.70762e-08) (5.26716e-05 0.00438878 -0.000201672)))
70	(((6.2971 -0.777393 -8.6654e-19) (0.342785 -0.0040896 -2.16049e-23)) ((0.00987289 0.0799731 8.56787e-08) (5.19379e-05 0.00435337 -0.000198003)))
71	(((6.31745 -0.774312 -8.66931e-19) (0.340051 -0.00403224 -2.15594e-23)) ((0.00983376 0.0802316 8.49423e-08) (5.12095e-05 0.00431865 -0.000194369)))
72	(((6.33846 -0.7765 -8.67295e-19) (0.337371 -0.00397543 -2.15116e-23)) ((0.00986155 0.0804984 8.39925e-08) (5.0488e-05 0.00428461 -0.000190768)))
73	(((6.36375 -0.781992 -8.67672e-19) (0.334744 -0.00391918 -2.14609e-23)) ((0.0099313 0.0808196 8.24447e-08) (4.97736e-05 0.00425124 -0.000187205)))
74	(((6.39191 -0.780355 -8.6808e-19) (0.332168 -0.0038634 -2.14064e-23)) ((0.00991051 0.0811773 8.13905e-08) (4.90652e-05 0.00421853 -0.000183684)))
75	(((6.41994 -0.775433 -8.68468e-19) (0.329643 -0.0038081 -2.13475e-23)) ((0.00984799 0.0815332 8.01689e-08) (4.83628e-05 0.00418647 -0.000180195)))
76	(((6.44417 -0.76974 -8.68808e-19) (0.327168 -0.00375324 -2.12843e-23)) ((0.00977569 0.0818409 7.90407e-08) (4.76661e-05 0.00415503 -0.000176739)))
77	(((6.46489 -0.770193 -8.69102e-19) (0.324741 -0.0036989 -2.12175e-23)) ((0.00978145 0.0821041 7.76983e-08) (4.6976e-05 0.00412422 -0.000173314)))
78	(((6.48572 -0.774487 -8.69482e-19) (0.322363 -0.0036451 -2.11475e-23)) ((0.00983598 0.0823687 7.65811e-08) (4.62928e-05 0.00409401 -0.000169928)))
79	(((6.51002 -0.780631 -8.69858e-19) (0.320032 -0.00359187 -2.10744e-23)) ((0.00991401 0.0826772 7.48819e-08) (4.56167e-05 0.0040644 -0.000166585)))
80	(((6.53556 -0.777984 -8.70259e-19) (0.317747 -0.00353904 -2.09981e-23)) ((0.0098804 0.0830016 7.39597e-08) (4.49459e-05 0.00403539 -0.00016329)))
81	(((6.56022 -0.772921 -8.70587e-19) (0.315508 -0.00348677 -2.09178e-23)) ((0.00981609 0.0833148 7.28305e-08) (4.4282e-05 0.00400695 -0.000160027)))
82	(((6.58313 -0.769979 -8.7088e-19) (0.313314 -0.00343501 -2.08335e-23)) ((0.00977874 0.0836057 7.14061e-08) (4.36246e-05 0.00397908 -0.0001568)))
83	(((6.60473 -0.77064 -8.71183e-19) (0.311164 -0.00338387 -2.07452e-23)) ((0.00978712 0.0838801 6.9926e-08) (4.29751e-05 0.00395178 -0.000153609)))
84	(((6.62566 -0.772926 -8.71515e-19) (0.309058 -0.00333341 -2.06534e-23)) ((0.00981616 0.0841459 6.86154e-08) (4.23343e-05 0.00392503 -0.000150457)))
85	(((6.64575 -0.77294 -8.7182e-19) (0.306995 -0.00328366 -2.05585e-23)) ((0.00981634 0.084401 6.79554e-08) (4.17024e-05 0.00389883 -0.000147344)))
86	(((6.6671 -0.773392 -8.72126e-19) (0.304974 -0.00323463 -2.04605e-23)) ((0.00982208 0.0846722 6.62974e-08) (4.10799e-05 0.00387317 -0.000144267)))
87	(((6.6888 -0.773173 -8.72436e-19) (0.302996 -0.00318613 -2.03596e-23)) ((0.0098193 0.0849478 6.47073e-08) (4.04638e-05 0.00384805 -0.000141235)))
88	(((6.71022 -0.772733 -8.72737e-19) (0.30106 -0.00313824 -2.02557e-23)) ((0.00981371 0.0852198 6.33285e-08) (3.98557e-05 0.00382346 -0.000138244)))
89	(((6.73102 -0.771686 -8.73053e-19) (0.299164 -0.00309107 -2.01489e-23)) ((0.00980042 0.085484 6.20562e-08) (3.92565e-05 0.00379939 -0.000135291)))
90	(((6.74995 -0.770967 -8.73338e-19) (0.29731 -0.00304467 -2.00395e-23)) ((0.00979129 0.0857244 6.12441e-08) (3.86673e-05 0.00377584 -0.000132375)))
91	(((6.76907 -0.771802 -8.73615e-19) (0.295496 -0.00299908 -1.99277e-23)) ((0.00980189 0.0859672 5.93571e-08) (3.80883e-05 0.00375279 -0.000129493)))
92	(((6.78676 -0.771949 -8.7388e-19) (0.293721 -0.00295404 -1.9814e-23)) ((0.00980375 0.0861919 5.81512e-08) (3.75163e-05 0.00373026 -0.000126657)))
93	(((6.80444 -0.769993 -8.74144e-19) (0.291986 -0.00290966 -1.96982e-23)) ((0.00977891 0.0864164 5.64377e-08) (3.69527e-05 0.00370823 -0.00012386)))
94	(((6.82195 -0.7699 -8.74433e-19) (0.290291 -0.00286582 -1.95809e-23)) ((0.00977773 0.0866387 5.50332e-08) (3.63959e-05 0.00368669 -0.000121108)))
95	(((6.83931 -0.772147 -8.74754e-19) (0.288634 -0.00282278 -1.94622e-23)) ((0.00980627 0.0868593 5.41712e-08) (3.58493e-05 0.00366565 -0.000118395)))
96	(((6.85647 -0.773968 -8.75047e-19) (0.287015 -0.00278072 -1.93424e-23)) ((0.00982939 0.0870771 5.28615e-08) (3.53151e-05 0.00364509 -0.000115715)))
97	(((6.873 -0.773253 -8.75291e-19) (0.285434 -0.0027394 -1.92216e-23)) ((0.00982031 0.0872871 5.09079e-08) (3.47904e-05 0.00362502 -0.000113073)))
98	(((6.8892 -0.771763 -8.75602e-19) (0.283892 -0.0026986 -1.91001e-23)) ((0.00980139 0.0874928 4.9351e-08) (3.42723e-05 0.00360542 -0.000110475)))
99	(((6.90442 -0.769898 -8.75911e-19) (0.282386 -0.00265844 -1.89778e-23)) ((0.0097777 0.0876861 4.82041e-08) (3.37623e-05 0.0035863 -0.000107915)))
100	(((6.91861 -0.769736 -8.76213e-19) (0.280918 -0.002619 -1.88551e-23)) ((0.00977565 0.0878664 4.69132e-08) (3.32614e-05 0.00356765 -0.000105391)))
101	(((6.93107 -0.772434 -8.76504e-19) (0.279486 -0.00258035 -1.87323e-23)) ((0.00980992 0.0880246 4.55354e-08) (3.27705e-05 0.00354947 -0.000102905)))
102	(((6.94526 -0.772939 -8.76759e-19) (0.278091 -0.00254251 -1.86095e-23)) ((0.00981632 0.0882048 4.37023e-08) (3.22898e-05 0.00353175 -0.000100456)))
103	(((6.96068 -0.77135 -8.7704e-19) (0.276732 -0.00250518 -1.84872e-23)) ((0.00979614 0.0884006 4.19894e-08) (3.18158e-05 0.0035145 -9.80485e-05)))
104	(((6.97468 -0.770297 -8.77393e-19) (0.275409 -0.00246846 -1.83655e-23)) ((0.00978277 0.0885784 4.10891e-08) (3.13494e-05 0.0034977 -9.56775e-05)))
105	(((6.98672 -0.770318 -8.77705e-19) (0.274122 -0.00243263 -1.82441e-23)) ((0.00978304 0.0887313 3.99753e-08) (3.08944e-05 0.00348135 -9.33329e-05)))
106	(((6.99662 -0.771231 -8.77929e-19) (0.27287 -0.00239766 -1.81233e-23)) ((0.00979463 0.0888571 3.84104e-08) (3.04502e-05 0.00346545 -9.10188e-05)))
107	(((7.00745 -0.77307 -8.78224e-19) (0.271654 -0.00236339 -1.80031e-23)) ((0.00981799 0.0889947 3.67231e-08) (3.00151e-05 0.00345 -8.87402e-05)))
108	(((7.01905 -0.772129 -8.78548e-19) (0.270472 -0.00232965 -1.78838e-23)) ((0.00980603 0.089142 3.50265e-08) (2.95866e-05 0.003435 -8.65003e-05)))
109	(((7.03173 -0.768802 -8.78864e-19) (0.269326 -0.00229634 -1.77657e-23)) ((0.00976379 0.0893029 3.32442e-08) (2.91636e-05 0.00342044 -8.43008e-05)))
110	(((7.04187 -0.76809 -8.79146e-19) (0.268214 -0.00226351 -1.76488e-23)) ((0.00975474 0.0894317 3.24169e-08) (2.87466e-05 0.00340632 -8.21341e-05)))
111	(((7.05086 -0.769352 -8.79397e-19) (0.267137 -0.00223163 -1.75332e-23)) ((0.00977077 0.089546 3.13037e-08) (2.83417e-05 0.00339264 -7.99892e-05)))
112	(((7.06027 -0.77085 -8.79649e-19) (0.266094 -0.00220064 -1.74191e-23)) ((0.0097898 0.0896654 2.96442e-08) (2.79481e-05 0.0033794 -7.787e-05)))
113	(((7.07044 -0.770827 -8.7991e-19) (0.265086 -0.00217024 -1.73066e-23)) ((0.0097895 0.0897945 2.77673e-08) (2.7562e-05 0.00336659 -7.57845e-05)))
114	(((7.08006 -0.768401 -8.80201e-19) (0.264112 -0.00214023 -1.71958e-23)) ((0.00975869 0.0899168 2.61215e-08) (2.71809e-05 0.00335422 -7.37352e-05)))
115	(((7.08767 -0.765645 -8.80498e-19) (0.263171 -0.00211065 -1.70863e-23)) ((0.00972369 0.0900134 2.48215e-08) (2.68052e-05 0.00334227 -7.17188e-05)))
116	(((7.09174 -0.766826 -8.80808e-19) (0.262264 -0.00208178 -1.69782e-23)) ((0.0097387 0.0900651 2.42128e-08) (2.64386e-05 0.00333076 -6.9727e-05)))
117	(((7.09843 -0.768612 -8.81072e-19) (0.261391 -0.00205382 -1.68718e-23)) ((0.00976137 0.0901501 2.24412e-08) (2.60836e-05 0.00331966 -6.77547e-05)))
118	(((7.10607 -0.769676 -8.81313e-19) (0.260551 -0.00202637 -1.67679e-23)) ((0.00977489 0.0902471 2.07027e-08) (2.57349e-05 0.003309 -6.58161e-05)))
119	(((7.11398 -0.767312 -8.81548e-19) (0.259745 -0.0019994 -1.66663e-23)) ((0.00974486 0.0903476 1.92155e-08) (2.53924e-05 0.00329876 -6.39078e-05)))
120	(((7.12174 -0.764247 -8.81782e-19) (0.258972 -0.00197291 -1.65668e-23)) ((0.00970594 0.0904461 1.78322e-08) (2.50559e-05 0.00328894 -6.20256e-05)))
121	(((7.12797 -0.762701 -8.82018e-19) (0.258232 -0.00194687 -1.64692e-23)) ((0.0096863 0.0905252 1.64992e-08) (2.47253e-05 0.00327954 -6.01677e-05)))
122	(((7.12999 -0.76382 -8.82271e-19) (0.257525 -0.00192145 -1.63733e-23)) ((0.00970051 0.0905509 1.57459e-08) (2.44024e-05 0.00327057 -5.83305e-05)))
123	(((7.13093 -0.765516 -8.82523e-19) (0.256851 -0.00189684 -1.62794e-23)) ((0.00972206 0.0905628 1.44362e-08) (2.40898e-05 0.00326201 -5.65076e-05)))
124	(((7.13406 -0.764699 -8.82739e-19) (0.25621 -0.0018727 -1.61882e-23)) ((0.00971168 0.0906025 1.22534e-08) (2.37833e-05 0.00325386 -5.47119e-05)))
125	(((7.13718 -0.762834 -8.82939e-19) (0.255601 -0.00184871 -1.61e-23)) ((0.00968799 0.0906422 1.06703e-08) (2.34786e-05 0.00324614 -5.29525e-05)))
126	(((7.14081 -0.760723 -8.83124e-19) (0.255026 -0.00182507 -1.60144e-23)) ((0.00966119 0.0906883 9.4411e-09) (2.31784e-05 0.00323883 -5.12204e-05)))
127	(((7.14196 -0.760433 -8.8333e-19) (0.254483 -0.00180198 -1.59312e-23)) ((0.0096575 0.0907028 8.8727e-09) (2.28851e-05 0.00323193 -4.95079e-05)))
128	(((7.14225 -0.761036 -8.83519e-19) (0.253972 -0.00177967 -1.58501e-23)) ((0.00966515 0.0907066 7.71922e-09) (2.26018e-05 0.00322544 -4.78054e-05)))
129	(((7.14338 -0.76038 -8.83662e-19) (0.253494 -0.00175782 -1.57715e-23)) ((0.00965682 0.0907209 5.56638e-09) (2.23243e-05 0.00321937 -4.61243e-05)))
130	(((7.14206 -0.758182 -8.83806e-19) (0.253048 -0.00173609 -1.56958e-23)) ((0.00962891 0.0907042 3.90481e-09) (2.20483e-05 0.0032137 -4.44757e-05)))
131	(((7.13633 -0.756326 -8.83996e-19) (0.252634 -0.00171473 -1.56229e-23)) ((0.00960535 0.0906313 3.35398e-09) (2.17771e-05 0.00320845 -4.28493e-05)))
132	(((7.12973 -0.755688 -8.84175e-19) (0.252252 -0.00169406 -1.55528e-23)) ((0.00959724 0.0905476 2.49897e-09) (2.15145e-05 0.0032036 -4.12332e-05)))
133	(((7.12349 -0.756326 -8.84322e-19) (0.251901 -0.00167393 -1.54856e-23)) ((0.00960535 0.0904683 1.24937e-09) (2.12589e-05 0.00319915 -3.96304e-05)))
134	(((7.11563 -0.756656 -8.8439e-19) (0.251583 -0.00165425 -1.54212e-23)) ((0.00960954 0.0903686 8.53477e-12) (2.1009e-05 0.0031951 -3.80473e-05)))
135	(((7.11334 -0.755791 -8.84502e-19) (0.251295 -0.00163486 -1.53594e-23)) ((0.00959855 0.0903394 -2.03957e-09) (2.07627e-05 0.00319145 -3.64866e-05)))
136	(((7.10968 -0.751125 -8.84658e-19) (0.25104 -0.00161532 -1.53012e-23)) ((0.00953929 0.0902929 -3.51318e-09) (2.05145e-05 0.00318821 -3.49642e-05)))
137	(((7.1006 -0.746339 -8.84785e-19) (0.250817 -0.0015959 -1.52458e-23)) ((0.00947851 0.0901776 -4.46799e-09) (2.02679e-05 0.00318537 -3.3466e-05)))
138	(((7.08538 -0.745414 -8.84856e-19) (0.250624 -0.00157707 -1.51929e-23)) ((0.00946675 0.0899843 -5.02061e-09) (2.00288e-05 0.00318292 -3.19752e-05)))
139	(((7.06411 -0.750007 -8.84874e-19) (0.250462 -0.00155927 -1.51424e-23)) ((0.00952508 0.0897142 -4.95342e-09) (1.98027e-05 0.00318086 -3.04783e-05)))
140	(((7.0476 -0.751315 -8.84924e-19) (0.25033 -0.00154224 -1.50949e-23)) ((0.0095417 0.0895045 -6.93561e-09) (1.95865e-05 0.00317919 -2.8984e-05)))
141	(((7.03015 -0.751275 -8.8498e-19) (0.250229 -0.00152493 -1.505e-23)) ((0.0095412 0.0892829 -8.36642e-09) (1.93667e-05 0.0031779 -2.75288e-05)))
142	(((7.01637 -0.742192 -8.8512e-19) (0.250158 -0.00150739 -1.50082e-23)) ((0.00942584 0.0891079 -1.06179e-08) (1.91439e-05 0.00317701 -2.61059e-05)))
143	(((6.99792 -0.734847 -8.85209e-19) (0.250118 -0.00148948 -1.49689e-23)) ((0.00933256 0.0888736 -1.17713e-08) (1.89163e-05 0.0031765 -2.47188e-05)))
144	(((6.97004 -0.73634 -8.85186e-19) (0.250108 -0.00147226 -1.49325e-23)) ((0.00935152 0.0885195 -1.11513e-08) (1.86977e-05 0.00317637 -2.33335e-05)))
145	(((6.94183 -0.7419 -8.85133e-19) (0.250127 -0.00145641 -1.48994e-23)) ((0.00942213 0.0881613 -1.13961e-08) (1.84964e-05 0.00317661 -2.19292e-05)))
146	(((6.91714 -0.744443 -8.85117e-19) (0.250175 -0.00144113 -1.48704e-23)) ((0.00945443 0.0878476 -1.29892e-08) (1.83024e-05 0.00317722 -2.05321e-05)))
147	(((6.89331 -0.739968 -8.85143e-19) (0.250252 -0.00142557 -1.48447e-23)) ((0.0093976 0.0875451 -1.506e-08) (1.81047e-05 0.00317821 -1.91691e-05)))
148	(((6.86338 -0.732119 -8.85161e-19) (0.250359 -0.00140953 -1.48211e-23)) ((0.00929791 0.0871649 -1.65708e-08) (1.7901e-05 0.00317956 -1.78437e-05)))
149	(((6.82246 -0.728522 -8.85189e-19) (0.250494 -0.00139365 -1.47986e-23)) ((0.00925222 0.0866452 -1.65402e-08) (1.76994e-05 0.00318128 -1.65325e-05)))
150	(((6.77737 -0.7299 -8.85189e-19) (0.250657 -0.00137865 -1.47774e-23)) ((0.00926974 0.0860726 -1.66492e-08) (1.75089e-05 0.00318335 -1.52129e-05)))
151	(((6.73523 -0.731521 -8.85121e-19) (0.250848 -0.00136426 -1.47589e-23)) ((0.00929032 0.0855374 -1.79583e-08) (1.73261e-05 0.00318577 -1.38967e-05)))
152	(((6.69304 -0.731562 -8.85039e-19) (0.251066 -0.00134988 -1.47439e-23)) ((0.00929083 0.0850016 -1.90974e-08) (1.71435e-05 0.00318854 -1.26034e-05)))
153	(((6.6514 -0.72706 -8.84982e-19) (0.251311 -0.00133549 -1.47324e-23)) ((0.00923366 0.0844727 -2.03605e-08) (1.69607e-05 0.00319165 -1.13314e-05)))
154	(((6.60764 -0.72066 -8.84934e-19) (0.251584 -0.001321 -1.47238e-23)) ((0.00915238 0.0839171 -2.15223e-08) (1.67767e-05 0.00319511 -1.00822e-05)))
155	(((6.55645 -0.718734 -8.84893e-19) (0.251883 -0.00130673 -1.47173e-23)) ((0.00912792 0.0832669 -2.16139e-08) (1.65954e-05 0.00319891 -8.84575e-06)))
156	(((6.50212 -0.719948 -8.84823e-19) (0.252207 -0.00129312 -1.47125e-23)) ((0.00914334 0.0825769 -2.19756e-08) (1.64227e-05 0.00320304 -7.60598e-06)))
157	(((6.44695 -0.719781 -8.84704e-19) (0.252558 -0.0012799 -1.471e-23)) ((0.00914121 0.0818762 -2.33831e-08) (1.62547e-05 0.00320749 -6.37627e-06)))
158	(((6.38573 -0.71745 -8.84575e-19) (0.252934 -0.0012666 -1.47101e-23)) ((0.00911162 0.0810988 -2.44846e-08) (1.60858e-05 0.00321226 -5.1729e-06)))
159	(((6.31693 -0.71554 -8.8447e-19) (0.253335 -0.00125348 -1.47125e-23)) ((0.00908735 0.080225 -2.47438e-08) (1.59191e-05 0.00321735 -3.98506e-06)))
160	(((6.24602 -0.712239 -8.84381e-19) (0.25376 -0.0012408 -1.47168e-23)) ((0.00904544 0.0793244 -2.52583e-08) (1.57582e-05 0.00322275 -2.80479e-06)))
161	(((6.17324 -0.709679 -8.84264e-19) (0.254209 -0.00122843 -1.47228e-23)) ((0.00901292 0.0784001 -2.59129e-08) (1.5601e-05 0.00322846 -1.63796e-06)))
162	(((6.09832 -0.709208 -8.84076e-19) (0.254682 -0.00121634 -1.47308e-23)) ((0.00900694 0.0774487 -2.65598e-08) (1.54475e-05 0.00323446 -4.8419e-07)))
163	(((6.0164 -0.711455 -8.83879e-19) (0.255178 -0.00120469 -1.4741e-23)) ((0.00903548 0.0764083 -2.66632e-08) (1.52996e-05 0.00324076 6.57769e-07)))
164	(((5.95068 -0.705113 -8.83746e-19) (0.255697 -0.001193 -1.47528e-23)) ((0.00895493 0.0755737 -2.98802e-08) (1.51511e-05 0.00324735 1.77635e-06)))
165	(((5.87062 -0.693707 -8.83561e-19) (0.256239 -0.0011803 -1.47676e-23)) ((0.00881008 0.0745569 -3.0324e-08) (1.49898e-05 0.00325424 2.83292e-06)))
166	(((5.7811 -0.689254 -8.83329e-19) (0.256804 -0.00116813 -1.47842e-23)) ((0.00875352 0.0734199 -3.00618e-08) (1.48352e-05 0.00326141 3.88598e-06)))
167	(((5.68199 -0.69652 -8.83097e-19) (0.25739 -0.00115718 -1.48023e-23)) ((0.0088458 0.0721612 -2.93496e-08) (1.46962e-05 0.00326885 4.95118e-06)))
168	(((5.58527 -0.700553 -8.82858e-19) (0.257996 -0.00114727 -1.48221e-23)) ((0.00889703 0.0709329 -3.04034e-08) (1.45703e-05 0.00327655 6.02007e-06)))
169	(((5.48644 -0.698469 -8.82638e-19) (0.258623 -0.00113723 -1.48436e-23)) ((0.00887056 0.0696778 -3.17941e-08) (1.44428e-05 0.00328451 7.05707e-06)))
170	(((5.38194 -0.689579 -8.82417e-19) (0.259271 -0.00112681 -1.48667e-23)) ((0.00875765 0.0683506 -3.28654e-08) (1.43104e-05 0.00329274 8.05988e-06)))
171	(((5.27013 -0.681362 -8.82164e-19) (0.259939 -0.0011163 -1.48913e-23)) ((0.0086533 0.0669307 -3.33842e-08) (1.4177e-05 0.00330123 9.04014e-06)))
172	(((5.14977 -0.682136 -8.81892e-19) (0.260627 -0.00110635 -1.49177e-23)) ((0.00866313 0.0654021 -3.29038e-08) (1.40506e-05 0.00330996 1.00144e-05)))
173	(((5.02885 -0.685425 -8.81603e-19) (0.261333 -0.00109736 -1.49462e-23)) ((0.0087049 0.0638664 -3.30055e-08) (1.39365e-05 0.00331893 1.09918e-05)))
174	(((4.91093 -0.682988 -8.81285e-19) (0.262058 -0.00108869 -1.49768e-23)) ((0.00867395 0.0623688 -3.42474e-08) (1.38264e-05 0.00332814 1.19521e-05)))
175	(((4.79094 -0.67617 -8.80957e-19) (0.262802 -0.00107972 -1.50089e-23)) ((0.00858735 0.0608449 -3.53633e-08) (1.37124e-05 0.00333759 1.28797e-05)))
176	(((4.66655 -0.669355 -8.80631e-19) (0.263564 -0.00107057 -1.50421e-23)) ((0.00850081 0.0592652 -3.62234e-08) (1.35962e-05 0.00334727 1.37787e-05)))
177	(((4.53115 -0.670002 -8.80302e-19) (0.264344 -0.00106178 -1.50758e-23)) ((0.00850902 0.0575456 -3.59707e-08) (1.34847e-05 0.00335717 1.46609e-05)))
178	(((4.39007 -0.671127 -8.7995e-19) (0.265141 -0.00105391 -1.51105e-23)) ((0.00852331 0.0557539 -3.59516e-08) (1.33847e-05 0.0033673 1.55414e-05)))
179	(((4.246 -0.67102 -8.79575e-19) (0.265955 -0.00104662 -1.51468e-23)) ((0.00852196 0.0539242 -3.62016e-08) (1.32921e-05 0.00337763 1.64127e-05)))
180	(((4.10306 -0.666195 -8.79207e-19) (0.266786 -0.00103945 -1.5185e-23)) ((0.00846068 0.0521088 -3.73402e-08) (1.3201e-05 0.00338818 1.72646e-05)))
181	(((3.95134 -0.6625 -8.78801e-19) (0.267633 -0.00103202 -1.52247e-23)) ((0.00841375 0.0501821 -3.82766e-08) (1.31066e-05 0.00339894 1.80851e-05)))
182	(((3.78421 -0.659306 -8.78358e-19) (0.268496 -0.00102468 -1.52655e-23)) ((0.00837318 0.0480595 -3.85698e-08) (1.30134e-05 0.0034099 1.88813e-05)))
183	(((3.60663 -0.658587 -8.77918e-19) (0.269375 -0.00101795 -1.53072e-23)) ((0.00836405 0.0458042 -3.83499e-08) (1.2928e-05 0.00342106 1.96711e-05)))
184	(((3.43204 -0.654862 -8.77486e-19) (0.270269 -0.00101181 -1.53501e-23)) ((0.00831675 0.0435869 -3.87815e-08) (1.285e-05 0.00343241 2.04553e-05)))
185	(((3.25738 -0.65277 -8.7704e-19) (0.271177 -0.00100584 -1.53942e-23)) ((0.00829018 0.0413687 -3.91209e-08) (1.27741e-05 0.00344395 2.12221e-05)))
186	(((3.08122 -0.649088 -8.76557e-19) (0.272101 -0.000999957 -1.54396e-23)) ((0.00824341 0.0391315 -3.98128e-08) (1.26995e-05 0.00345569 2.19737e-05)))
187	(((2.89817 -0.645871 -8.76057e-19) (0.27304 -0.000994124 -1.5486e-23)) ((0.00820256 0.0368068 -4.05429e-08) (1.26254e-05 0.0034676 2.27095e-05)))
188	(((2.70808 -0.644411 -8.75577e-19) (0.273993 -0.000988465 -1.55331e-23)) ((0.00818402 0.0343926 -4.13505e-08) (1.25535e-05 0.00347971 2.34302e-05)))
189	(((2.51177 -0.641472 -8.75084e-19) (0.27496 -0.000982974 -1.5581e-23)) ((0.0081467 0.0318995 -4.19285e-08) (1.24838e-05 0.00349199 2.4134e-05)))
190	(((2.31201 -0.638504 -8.74539e-19) (0.275941 -0.000977719 -1.56299e-23)) ((0.00810901 0.0293625 -4.22847e-08) (1.2417e-05 0.00350446 2.48228e-05)))
191	(((2.10592 -0.637888 -8.73984e-19) (0.276936 -0.000972974 -1.56802e-23)) ((0.00810118 0.0267451 -4.17645e-08) (1.23568e-05 0.00351709 2.55034e-05)))
192	(((1.90135 -0.634851 -8.73456e-19) (0.277945 -0.00096887 -1.57317e-23)) ((0.0080626 0.0241471 -4.21294e-08) (1.23046e-05 0.0035299 2.61832e-05)))
193	(((1.69397 -0.629323 -8.72928e-19) (0.278967 -0.000964808 -1.57841e-23)) ((0.0079924 0.0215134 -4.29416e-08) (1.22531e-05 0.00354288 2.68446e-05)))
194	(((1.47902 -0.625548 -8.72394e-19) (0.280002 -0.000960645 -1.58369e-23)) ((0.00794445 0.0187835 -4.38529e-08) (1.22002e-05 0.00355603 2.74794e-05)))
195	(((1.24004 -0.629112 -8.7178e-19) (0.281051 -0.000956804 -1.58901e-23)) ((0.00798973 0.0157485 -4.3556e-08) (1.21514e-05 0.00356935 2.80896e-05)))
196	(((0.985838 -0.629715 -8.71127e-19) (0.282112 -0.000953863 -1.59442e-23)) ((0.00799738 0.0125201 -4.30997e-08) (1.21141e-05 0.00358283 2.86939e-05)))
197	(((0.72508 -0.629745 -8.70469e-19) (0.283186 -0.00095178 -1.59991e-23)) ((0.00799776 0.00920852 -4.19805e-08) (1.20876e-05 0.00359646 2.93025e-05)))
198	(((0.489192 -0.615405 -8.69934e-19) (0.284272 -0.00094976 -1.60552e-23)) ((0.00781565 0.00621273 -4.37932e-08) (1.2062e-05 0.00361025 2.99047e-05)))
199	(((0.249551 -0.604272 -8.69374e-19) (0.285372 -0.00094637 -1.61109e-23)) ((0.00767425 0.0031693 -4.52869e-08) (1.20189e-05 0.00362422 3.0438e-05)))