/*--------------------------------*- C++ -*----------------------------------*\
| =========                 |                                                 |
| \\      /  F ield         | OpenFOAM: The Open Source CFD Toolbox           |
|  \\    /   O peration     | Version:  2.1.1                                 |
|   \\  /    A nd           | Web:      www.OpenFOAM.org                      |
|    \\/     M anipulation  |                                                 |
\*---------------------------------------------------------------------------*/
FoamFile
{
    version     2.0;
    format      ascii;
    class       surfaceScalarField;
    location    "0";
    object      phi;
}
// * * * * * * * * * * * * * * * * * * * * * * * * * * * * * * * * * * * * * //

dimensions      [0 3 -1 0 0 0 0];

internalField   nonuniform List<scalar> 
108570
(
0.000281267
-1.0912e-07
-1.7793e-11
0.000281288
-2.08887e-08
-9.63307e-12
0.000281294
-6.49814e-09
-7.70517e-12
0.000281298
-3.74288e-09
-6.74449e-12
0.000281301
-2.74019e-09
-5.41328e-12
0.000281303
-2.04897e-09
-3.78025e-12
0.000281304
-1.43323e-09
-4.45782e-12
0.000281305
-8.88179e-10
-4.03672e-12
0.000281305
-3.85358e-10
-4.18682e-12
0.000281305
7.9096e-11
-3.48338e-12
0.000281305
4.9996e-10
-8.61067e-12
0.000281304
8.78566e-10
-6.74183e-13
0.000281303
1.23173e-09
-8.06011e-12
0.000281301
1.54467e-09
-1.00494e-11
0.000281299
1.83463e-09
-1.01577e-11
0.000281297
2.08727e-09
-7.18947e-12
0.000281295
2.31997e-09
-9.61159e-12
0.000281293
2.52289e-09
-6.03012e-12
0.00028129
2.7088e-09
-8.37103e-12
0.000281287
2.87133e-09
-7.45526e-12
0.000281284
3.01564e-09
-8.52329e-12
0.000281281
3.13866e-09
-5.82315e-12
0.000281278
3.24883e-09
-5.40784e-12
0.000281274
3.34192e-09
-5.17689e-12
0.000281271
3.42241e-09
-6.41456e-12
0.000281267
3.48782e-09
-6.15258e-12
0.000281264
3.54379e-09
-6.10489e-12
0.00028126
3.58641e-09
-5.56413e-12
0.000281257
3.62017e-09
-6.25239e-12
0.000281253
3.64414e-09
-5.64326e-12
0.000281249
3.66061e-09
-6.05493e-12
0.000281246
3.66837e-09
-5.78568e-12
0.000281242
3.67002e-09
-5.60033e-12
0.000281238
3.6649e-09
-6.33574e-12
0.000281235
3.65281e-09
-6.64468e-12
0.000281231
3.63569e-09
-6.17251e-12
0.000281227
3.61281e-09
-4.20428e-12
0.000281224
3.58574e-09
-3.43783e-12
0.00028122
3.55418e-09
-2.02166e-12
0.000281217
3.51911e-09
-6.98386e-13
0.000281213
3.48149e-09
1.6806e-14
0.00028121
3.4407e-09
1.54066e-12
0.000281206
3.39767e-09
2.24806e-12
0.000281203
3.35315e-09
1.29127e-12
0.0002812
3.30659e-09
6.86243e-13
0.000281196
3.25844e-09
4.71331e-13
0.000281193
3.2101e-09
-9.38569e-13
0.00028119
3.16078e-09
-3.68093e-12
0.000281187
3.10978e-09
-5.00175e-12
0.000281184
3.05969e-09
-7.19384e-12
0.000281181
3.01027e-09
-1.09084e-11
0.000281178
2.96117e-09
-1.51166e-11
0.000281175
2.91496e-09
-2.07746e-11
0.000281172
2.86985e-09
-2.76142e-11
0.000281169
2.82846e-09
-3.55362e-11
0.000281167
2.79181e-09
-4.66849e-11
0.000281164
2.76119e-09
-5.87701e-11
0.000281161
2.73624e-09
-7.40224e-11
0.000281159
2.72306e-09
-9.03927e-11
0.000281156
2.71926e-09
-1.09728e-10
0.000281153
2.73387e-09
-1.29443e-10
0.000281151
2.76696e-09
-1.54481e-10
0.000281148
2.82769e-09
-1.80172e-10
0.000281145
2.92024e-09
-2.10168e-10
0.000281143
3.05695e-09
-2.40746e-10
0.00028114
3.24236e-09
-2.77241e-10
0.000281136
3.49694e-09
-3.14646e-10
0.000281133
3.82786e-09
-3.56778e-10
0.000281129
4.26042e-09
-4.00911e-10
0.000281125
4.8082e-09
-4.49791e-10
0.00028112
5.5012e-09
-4.99911e-10
0.000281114
6.36306e-09
-5.55773e-10
0.000281107
7.42935e-09
-6.12832e-10
0.000281099
8.72917e-09
-6.75861e-10
0.000281089
1.03071e-08
-7.39586e-10
0.000281078
1.22002e-08
-8.09222e-10
0.000281064
1.44591e-08
-8.80297e-10
0.000281048
1.71293e-08
-9.5584e-10
0.000281029
2.02656e-08
-1.03253e-09
0.000281006
2.39199e-08
-1.11448e-09
0.000280979
2.81523e-08
-1.19729e-09
0.000280947
3.30171e-08
-1.28377e-09
0.00028091
3.85763e-08
-1.37083e-09
0.000280867
4.48845e-08
-1.46091e-09
0.000280816
5.20016e-08
-1.55094e-09
0.000280758
5.99795e-08
-1.64466e-09
0.000280691
6.88699e-08
-1.73761e-09
0.000280614
7.87178e-08
-1.83207e-09
0.000280526
8.95658e-08
-1.92524e-09
0.000280427
1.01446e-07
-2.01959e-09
0.000280314
1.14385e-07
-2.11244e-09
0.000280188
1.28399e-07
-2.20572e-09
0.000280047
1.43497e-07
-2.29562e-09
0.00027989
1.59675e-07
-2.38569e-09
0.000279715
1.76919e-07
-2.47305e-09
0.000279523
1.95202e-07
-2.55903e-09
0.000279311
2.14488e-07
-2.64158e-09
0.000279079
2.34727e-07
-2.72253e-09
0.000278826
2.55859e-07
-2.79971e-09
0.000278551
2.7781e-07
-2.8747e-09
0.000278253
3.00498e-07
-2.94556e-09
0.000277932
3.2383e-07
-3.01403e-09
0.000277587
3.47704e-07
-3.07807e-09
0.000277219
3.72008e-07
-3.13832e-09
0.000276825
3.96628e-07
-3.19403e-09
0.000276407
4.21441e-07
-3.24647e-09
0.000275964
4.46322e-07
-3.29355e-09
0.000275496
4.71143e-07
-3.33679e-09
0.000275004
4.95775e-07
-3.37477e-09
0.000274487
5.20092e-07
-3.40871e-09
0.000273946
5.43969e-07
-3.43736e-09
0.000273382
5.67285e-07
-3.4619e-09
0.000272796
5.89924e-07
-3.48121e-09
0.000272188
6.11779e-07
-3.49667e-09
0.000271558
6.32748e-07
-3.50686e-09
0.000270909
6.52738e-07
-3.51291e-09
0.000270241
6.71667e-07
-3.51437e-09
0.000269555
6.8946e-07
-3.51211e-09
0.000268852
7.06056e-07
-3.50555e-09
0.000268134
7.21402e-07
-3.49556e-09
0.000267402
7.35457e-07
-3.48125e-09
0.000266658
7.48188e-07
-3.46368e-09
0.000265901
7.59576e-07
-3.44242e-09
0.000265135
7.6961e-07
-3.41858e-09
0.00026436
7.78287e-07
-3.39146e-09
0.000263578
7.85616e-07
-3.36198e-09
0.00026279
7.91612e-07
-3.32965e-09
0.000261997
7.96298e-07
-3.29548e-09
0.0002612
7.99704e-07
-3.25889e-09
0.000260401
8.01866e-07
-3.22053e-09
0.000259602
8.02824e-07
-3.18004e-09
0.000258802
8.02626e-07
-3.1384e-09
0.000258004
8.01319e-07
-3.09523e-09
0.000257208
7.98956e-07
-3.05097e-09
0.000256415
7.95593e-07
-3.00541e-09
0.000255627
7.91284e-07
-2.95915e-09
0.000254844
7.86089e-07
-2.91189e-09
0.000254066
7.80065e-07
-2.86428e-09
0.000253296
7.73269e-07
-2.81583e-09
0.000252533
7.6576e-07
-2.76702e-09
0.000251778
7.57595e-07
-2.71781e-09
0.000251031
7.4883e-07
-2.6686e-09
0.000250294
7.39518e-07
-2.61897e-09
0.000249567
7.29713e-07
-2.56932e-09
0.00024885
7.19467e-07
-2.51967e-09
0.000248143
7.08827e-07
-2.47019e-09
0.000247448
6.97842e-07
-2.42062e-09
0.000246764
6.86555e-07
-2.37133e-09
0.000246091
6.75009e-07
-2.32207e-09
0.00024543
6.63244e-07
-2.27319e-09
0.00024478
6.51299e-07
-2.22458e-09
0.000244143
6.39208e-07
-2.17642e-09
0.000243518
6.27006e-07
-2.12861e-09
0.000242905
6.14722e-07
-2.08126e-09
0.000242305
6.02388e-07
-2.03421e-09
0.000241716
5.90027e-07
-1.98786e-09
0.00024114
5.77667e-07
-1.94187e-09
0.000240577
5.65329e-07
-1.89646e-09
0.000240025
5.53035e-07
-1.85163e-09
0.000239486
5.40803e-07
-1.80742e-09
0.000238959
5.28653e-07
-1.76369e-09
0.000238444
5.16597e-07
-1.72076e-09
0.00023794
5.04653e-07
-1.67835e-09
0.000237449
4.92832e-07
-1.63667e-09
0.000236969
4.81145e-07
-1.5956e-09
0.000236501
4.69604e-07
-1.55525e-09
0.000236044
4.58218e-07
-1.51558e-09
0.000235598
4.46993e-07
-1.47672e-09
0.000235163
4.35938e-07
-1.43849e-09
0.000234739
4.25058e-07
-1.401e-09
0.000234325
4.14359e-07
-1.36422e-09
0.000233922
4.03844e-07
-1.32828e-09
0.00023353
3.93517e-07
-1.29295e-09
0.000233147
3.83383e-07
-1.25842e-09
3.73441e-07
0.000232775
-1.22456e-09
0.000240228
-1.91661e-07
0.000240243
-3.58543e-08
0.000240248
-1.12124e-08
0.000240251
-6.52179e-09
0.000240253
-4.787e-09
0.000240254
-3.58422e-09
0.000240255
-2.5147e-09
0.000240256
-1.55438e-09
0.000240256
-6.76051e-10
0.000240256
1.27122e-10
0.000240256
8.63352e-10
0.000240255
1.52733e-09
0.000240254
2.1406e-09
0.000240253
2.68867e-09
0.000240252
3.19089e-09
0.00024025
3.6347e-09
0.000240248
4.03965e-09
0.000240247
4.39684e-09
0.000240245
4.72019e-09
0.000240242
5.00383e-09
0.00024024
5.25639e-09
0.000240238
5.47265e-09
0.000240235
5.66532e-09
0.000240233
5.82803e-09
0.00024023
5.9678e-09
0.000240228
6.08269e-09
0.000240225
6.18036e-09
0.000240223
6.25476e-09
0.00024022
6.31334e-09
0.000240217
6.35611e-09
0.000240214
6.38422e-09
0.000240212
6.3979e-09
0.000240209
6.40163e-09
0.000240206
6.3925e-09
0.000240203
6.37152e-09
0.000240201
6.34184e-09
0.000240198
6.30309e-09
0.000240195
6.25624e-09
0.000240193
6.20291e-09
0.00024019
6.14349e-09
0.000240188
6.07777e-09
0.000240185
6.00786e-09
0.000240182
5.9337e-09
0.00024018
5.85565e-09
0.000240177
5.7742e-09
0.000240175
5.69007e-09
0.000240173
5.60439e-09
0.00024017
5.51601e-09
0.000240168
5.42641e-09
0.000240166
5.33674e-09
0.000240163
5.24729e-09
0.000240161
5.159e-09
0.000240159
5.07243e-09
0.000240157
4.98934e-09
0.000240155
4.91007e-09
0.000240153
4.83742e-09
0.000240151
4.77269e-09
0.000240149
4.71789e-09
0.000240147
4.67744e-09
0.000240145
4.65678e-09
0.000240143
4.66039e-09
0.000240141
4.69597e-09
0.000240139
4.7741e-09
0.000240137
4.9062e-09
0.000240135
5.10544e-09
0.000240133
5.3919e-09
0.000240131
5.7825e-09
0.000240128
6.30723e-09
0.000240125
6.99175e-09
0.000240122
7.87526e-09
0.000240119
8.99275e-09
0.000240115
1.03955e-08
0.00024011
1.21323e-08
0.000240104
1.42648e-08
0.000240098
1.68557e-08
0.00024009
1.99772e-08
0.000240081
2.37045e-08
0.00024007
2.81238e-08
0.000240057
3.332e-08
0.000240041
3.93866e-08
0.000240023
4.6418e-08
0.000240002
5.45153e-08
0.000239976
6.37759e-08
0.000239947
7.43003e-08
0.000239913
8.61842e-08
0.000239873
9.95217e-08
0.000239828
1.14402e-07
0.000239775
1.30908e-07
0.000239716
1.49111e-07
0.000239648
1.69074e-07
0.000239572
1.90849e-07
0.000239486
2.14471e-07
0.000239389
2.39963e-07
0.000239281
2.6733e-07
0.000239162
2.96559e-07
0.000239029
3.27621e-07
0.000238883
3.60465e-07
0.000238723
3.95022e-07
0.000238548
4.31206e-07
0.000238357
4.6891e-07
0.000238149
5.0801e-07
0.000237924
5.48362e-07
0.000237682
5.89812e-07
0.000237422
6.32187e-07
0.000237143
6.75302e-07
0.000236846
7.18961e-07
0.000236529
7.62963e-07
0.000236193
8.07095e-07
0.000235838
8.51146e-07
0.000235463
8.949e-07
0.000235069
9.38142e-07
0.000234655
9.80662e-07
0.000234223
1.02226e-06
0.000233772
1.06272e-06
0.000233303
1.10188e-06
0.000232816
1.13955e-06
0.000232312
1.17557e-06
0.000231792
1.20979e-06
0.000231256
1.24208e-06
0.000230705
1.27232e-06
0.00023014
1.30042e-06
0.000229561
1.32629e-06
0.000228971
1.34987e-06
0.00022837
1.37112e-06
0.000227758
1.39e-06
0.000227137
1.40649e-06
0.000226508
1.42061e-06
0.000225872
1.43237e-06
0.00022523
1.4418e-06
0.000224582
1.44894e-06
0.000223931
1.45384e-06
0.000223277
1.45658e-06
0.000222621
1.45721e-06
0.000221964
1.45583e-06
0.000221308
1.45252e-06
0.000220651
1.44737e-06
0.000219997
1.44048e-06
0.000219345
1.43194e-06
0.000218696
1.42186e-06
0.000218052
1.41034e-06
0.000217412
1.39748e-06
0.000216777
1.38337e-06
0.000216148
1.36813e-06
0.000215526
1.35184e-06
0.000214911
1.33461e-06
0.000214303
1.31653e-06
0.000213703
1.29768e-06
0.000213112
1.27815e-06
0.000212529
1.25803e-06
0.000211954
1.23739e-06
0.000211389
1.21631e-06
0.000210834
1.19485e-06
0.000210287
1.1731e-06
0.000209751
1.1511e-06
0.000209224
1.12891e-06
0.000208708
1.1066e-06
0.000208201
1.08422e-06
0.000207705
1.0618e-06
0.000207218
1.03939e-06
0.000206742
1.01704e-06
0.000206276
9.94779e-07
0.00020582
9.72643e-07
0.000205373
9.50661e-07
0.000204937
9.28862e-07
0.000204511
9.07271e-07
0.000204095
8.85911e-07
0.000203688
8.64802e-07
0.000203291
8.43961e-07
0.000202904
8.23405e-07
0.000202525
8.03149e-07
0.000202156
7.83203e-07
0.000201797
7.63578e-07
0.000201446
7.44284e-07
0.000201104
7.25327e-07
7.06713e-07
0.00020077
0.000205171
-2.46777e-07
0.00020518
-4.48451e-08
0.000205183
-1.41271e-08
0.000205185
-8.31165e-09
0.000205186
-6.12386e-09
0.000205187
-4.58465e-09
0.000205188
-3.22487e-09
0.000205188
-1.99449e-09
0.000205188
-8.66096e-10
0.000205188
1.5563e-10
0.000205188
1.09898e-09
0.000205188
1.94975e-09
0.000205187
2.73091e-09
0.000205186
3.43441e-09
0.000205185
4.07673e-09
0.000205184
4.64434e-09
0.000205183
5.16166e-09
0.000205182
5.61946e-09
0.000205181
6.03364e-09
0.000205179
6.39552e-09
0.000205178
6.71988e-09
0.000205176
6.99596e-09
0.000205175
7.2437e-09
0.000205173
7.45079e-09
0.000205172
7.63034e-09
0.00020517
7.77715e-09
0.000205168
7.90212e-09
0.000205166
7.99803e-09
0.000205165
8.07271e-09
0.000205163
8.12612e-09
0.000205161
8.16331e-09
0.000205159
8.18091e-09
0.000205158
8.1858e-09
0.000205156
8.17455e-09
0.000205154
8.14807e-09
0.000205152
8.10955e-09
0.00020515
8.06137e-09
0.000205149
8.0015e-09
0.000205147
7.93386e-09
0.000205145
7.8583e-09
0.000205144
7.7749e-09
0.000205142
7.68577e-09
0.00020514
7.59145e-09
0.000205139
7.49171e-09
0.000205137
7.38724e-09
0.000205135
7.27934e-09
0.000205134
7.16921e-09
0.000205132
7.05543e-09
0.000205131
6.9413e-09
0.000205129
6.82509e-09
0.000205128
6.7088e-09
0.000205126
6.59503e-09
0.000205125
6.48217e-09
0.000205124
6.3721e-09
0.000205122
6.26851e-09
0.000205121
6.17118e-09
0.00020512
6.08404e-09
0.000205118
6.00746e-09
0.000205117
5.94643e-09
0.000205116
5.90966e-09
0.000205114
5.90256e-09
0.000205113
5.93292e-09
0.000205112
6.0148e-09
0.000205111
6.16063e-09
0.000205109
6.38893e-09
0.000205108
6.72043e-09
0.000205107
7.18009e-09
0.000205105
7.79806e-09
0.000205104
8.61218e-09
0.000205102
9.66237e-09
0.0002051
1.10006e-08
0.000205097
1.268e-08
0.000205095
1.47675e-08
0.000205092
1.73327e-08
0.000205088
2.04532e-08
0.000205084
2.42169e-08
0.000205079
2.87177e-08
0.000205073
3.40556e-08
0.000205066
4.03389e-08
0.000205058
4.76803e-08
0.000205048
5.61966e-08
0.000205036
6.60083e-08
0.000205023
7.7239e-08
0.000205007
9.00109e-08
0.000204989
1.04446e-07
0.000204968
1.2066e-07
0.000204943
1.38767e-07
0.000204915
1.58873e-07
0.000204883
1.81073e-07
0.000204847
2.05451e-07
0.000204806
2.3208e-07
0.000204759
2.61014e-07
0.000204707
2.92294e-07
0.000204648
3.2594e-07
0.000204583
3.61955e-07
0.00020451
4.00321e-07
0.000204429
4.40996e-07
0.00020434
4.83921e-07
0.000204243
5.29009e-07
0.000204135
5.76158e-07
0.000204018
6.25239e-07
0.00020389
6.76106e-07
0.000203752
7.28591e-07
0.000203601
7.82509e-07
0.000203439
8.37659e-07
0.000203264
8.93824e-07
0.000203076
9.50771e-07
0.000202875
1.00826e-06
0.00020266
1.06605e-06
0.000202431
1.12387e-06
0.000202188
1.18147e-06
0.00020193
1.2386e-06
0.000201657
1.29498e-06
0.000201369
1.35038e-06
0.000201067
1.40453e-06
0.000200749
1.4572e-06
0.000200416
1.50816e-06
0.000200069
1.55721e-06
0.000199707
1.60413e-06
0.00019933
1.64874e-06
0.00019894
1.69089e-06
0.000198536
1.73041e-06
0.000198118
1.76719e-06
0.000197688
1.80112e-06
0.000197246
1.83212e-06
0.000196792
1.86011e-06
0.000196328
1.88505e-06
0.000195853
1.90691e-06
0.000195369
1.9257e-06
0.000194877
1.94142e-06
0.000194376
1.95409e-06
0.000193869
1.96378e-06
0.000193356
1.97053e-06
0.000192837
1.97443e-06
0.000192314
1.97555e-06
0.000191787
1.974e-06
0.000191258
1.96988e-06
0.000190727
1.9633e-06
0.000190194
1.95438e-06
0.000189661
1.94325e-06
0.000189128
1.93003e-06
0.000188597
1.91486e-06
0.000188067
1.89787e-06
0.00018754
1.87918e-06
0.000187015
1.85893e-06
0.000186494
1.83725e-06
0.000185978
1.81426e-06
0.000185466
1.79008e-06
0.000184959
1.76485e-06
0.000184457
1.73867e-06
0.000183962
1.71164e-06
0.000183473
1.68389e-06
0.00018299
1.65551e-06
0.000182515
1.6266e-06
0.000182046
1.59725e-06
0.000181585
1.56755e-06
0.000181132
1.53757e-06
0.000180686
1.50739e-06
0.000180248
1.47708e-06
0.000179819
1.44671e-06
0.000179397
1.41634e-06
0.000178984
1.38602e-06
0.000178578
1.35582e-06
0.000178181
1.32576e-06
0.000177793
1.2959e-06
0.000177412
1.26627e-06
0.00017704
1.23692e-06
0.000176676
1.20787e-06
0.00017632
1.17915e-06
0.000175972
1.15079e-06
0.000175632
1.1228e-06
0.000175301
1.09522e-06
0.000174977
1.06806e-06
0.00017466
1.04132e-06
1.01503e-06
0.000174352
0.000175227
-2.77702e-07
0.000175231
-4.88543e-08
0.000175232
-1.55324e-08
0.000175233
-9.25136e-09
0.000175234
-6.842e-09
0.000175235
-5.12408e-09
0.000175235
-3.6073e-09
0.000175235
-2.23514e-09
0.000175235
-9.71118e-10
0.000175235
1.6861e-10
0.000175235
1.23103e-09
0.000175235
2.1728e-09
0.000175235
3.05009e-09
0.000175234
3.83601e-09
0.000175234
4.55491e-09
0.000175233
5.18801e-09
0.000175233
5.76708e-09
0.000175232
6.2785e-09
0.000175231
6.743e-09
0.00017523
7.14656e-09
0.00017523
7.50875e-09
0.000175229
7.81808e-09
0.000175228
8.0965e-09
0.000175227
8.32637e-09
0.000175226
8.52794e-09
0.000175225
8.69182e-09
0.000175224
8.83189e-09
0.000175223
8.93785e-09
0.000175222
9.0232e-09
0.000175221
9.08222e-09
0.00017522
9.12376e-09
0.00017522
9.14298e-09
0.000175219
9.14983e-09
0.000175218
9.13701e-09
0.000175217
9.10749e-09
0.000175216
9.06492e-09
0.000175215
9.01017e-09
0.000175214
8.94595e-09
0.000175213
8.86906e-09
0.000175212
8.78488e-09
0.000175211
8.69255e-09
0.00017521
8.59319e-09
0.000175209
8.48825e-09
0.000175208
8.37671e-09
0.000175207
8.25979e-09
0.000175207
8.13917e-09
0.000175206
8.01526e-09
0.000175205
7.88853e-09
0.000175204
7.76021e-09
0.000175203
7.62987e-09
0.000175202
7.49996e-09
0.000175202
7.37029e-09
0.000175201
7.24285e-09
0.0001752
7.1191e-09
0.000175199
7.00109e-09
0.000175199
6.88993e-09
0.000175198
6.78815e-09
0.000175197
6.69865e-09
0.000175197
6.6239e-09
0.000175196
6.57395e-09
0.000175195
6.55675e-09
0.000175195
6.57892e-09
0.000175194
6.65422e-09
0.000175193
6.79783e-09
0.000175193
7.02692e-09
0.000175192
7.36531e-09
0.000175191
7.83854e-09
0.000175191
8.4789e-09
0.00017519
9.32249e-09
0.000175189
1.04175e-08
0.000175188
1.18144e-08
0.000175187
1.35727e-08
0.000175186
1.57597e-08
0.000175185
1.84502e-08
0.000175184
2.17275e-08
0.000175183
2.5682e-08
0.000175181
3.04149e-08
0.000175179
3.60318e-08
0.000175177
4.26469e-08
0.000175174
5.03789e-08
0.000175171
5.93545e-08
0.000175167
6.97019e-08
0.000175163
8.15517e-08
0.000175158
9.50359e-08
0.000175152
1.10285e-07
0.000175145
1.2743e-07
0.000175137
1.46591e-07
0.000175128
1.67885e-07
0.000175118
1.91424e-07
0.000175106
2.17302e-07
0.000175092
2.45604e-07
0.000175077
2.76405e-07
0.000175059
3.09757e-07
0.00017504
3.45699e-07
0.000175017
3.84249e-07
0.000174992
4.25411e-07
0.000174964
4.69161e-07
0.000174932
5.1546e-07
0.000174897
5.64245e-07
0.000174858
6.15431e-07
0.000174814
6.68914e-07
0.000174766
7.24569e-07
0.000174712
7.82249e-07
0.000174653
8.41791e-07
0.000174587
9.0301e-07
0.000174515
9.65708e-07
0.000174437
1.02967e-06
0.00017435
1.09466e-06
0.000174256
1.16045e-06
0.000174153
1.22678e-06
0.000174041
1.2934e-06
0.000173919
1.36003e-06
0.000173788
1.42642e-06
0.000173646
1.49228e-06
0.000173493
1.55735e-06
0.000173329
1.62137e-06
0.000173153
1.68407e-06
0.000172965
1.74519e-06
0.000172764
1.80449e-06
0.000172551
1.86174e-06
0.000172326
1.9167e-06
0.000172087
1.96919e-06
0.000171835
2.01899e-06
0.00017157
2.06595e-06
0.000171292
2.1099e-06
0.000171002
2.15072e-06
0.000170698
2.18828e-06
0.000170383
2.22249e-06
0.000170055
2.25329e-06
0.000169716
2.28061e-06
0.000169365
2.30444e-06
0.000169004
2.32475e-06
0.000168633
2.34157e-06
0.000168253
2.35491e-06
0.000167863
2.36483e-06
0.000167466
2.37139e-06
0.000167061
2.37467e-06
0.000166649
2.37475e-06
0.000166232
2.37176e-06
0.000165809
2.3658e-06
0.000165382
2.35699e-06
0.000164952
2.34548e-06
0.000164518
2.33139e-06
0.000164082
2.31488e-06
0.000163645
2.29609e-06
0.000163207
2.27518e-06
0.000162769
2.25229e-06
0.000162331
2.22757e-06
0.000161895
2.20117e-06
0.00016146
2.17324e-06
0.000161028
2.14393e-06
0.000160598
2.11336e-06
0.000160172
2.08169e-06
0.000159749
2.04903e-06
0.000159331
2.01552e-06
0.000158917
1.98128e-06
0.000158508
1.94641e-06
0.000158104
1.91102e-06
0.000157706
1.87523e-06
0.000157313
1.83912e-06
0.000156927
1.80278e-06
0.000156546
1.76631e-06
0.000156172
1.72977e-06
0.000155805
1.69324e-06
0.000155444
1.65678e-06
0.000155089
1.62046e-06
0.000154742
1.58434e-06
0.000154401
1.54846e-06
0.000154067
1.51287e-06
0.00015374
1.47761e-06
0.00015342
1.44273e-06
0.000153106
1.40825e-06
0.0001528
1.37422e-06
0.0001525
1.34064e-06
1.30755e-06
0.000152208
0.000149652
-2.89108e-07
0.000149652
-4.9165e-08
0.000149652
-1.57965e-08
0.000149653
-9.52892e-09
0.000149653
-7.06984e-09
0.000149653
-5.29907e-09
0.000149653
-3.73026e-09
0.000149653
-2.31681e-09
0.000149653
-1.00537e-09
0.000149653
1.72995e-10
0.000149653
1.2715e-09
0.000149653
2.24498e-09
0.000149653
3.15376e-09
0.000149653
3.96696e-09
0.000149653
4.70941e-09
0.000149653
5.36447e-09
0.000149652
5.96407e-09
0.000149652
6.4916e-09
0.000149652
6.97419e-09
0.000149652
7.3901e-09
0.000149651
7.76574e-09
0.000149651
8.08472e-09
0.000149651
8.37494e-09
0.000149651
8.61036e-09
0.00014965
8.82045e-09
0.00014965
8.98874e-09
0.00014965
9.13492e-09
0.000149649
9.24295e-09
0.000149649
9.33276e-09
0.000149649
9.3924e-09
0.000149648
9.43621e-09
0.000149648
9.45619e-09
0.000149648
9.46451e-09
0.000149648
9.45162e-09
0.000149647
9.41986e-09
0.000149647
9.37627e-09
0.000149647
9.32091e-09
0.000149646
9.25366e-09
0.000149646
9.17501e-09
0.000149646
9.08833e-09
0.000149645
8.99232e-09
0.000149645
8.8913e-09
0.000149645
8.78171e-09
0.000149644
8.66562e-09
0.000149644
8.54666e-09
0.000149644
8.42052e-09
0.000149644
8.29342e-09
0.000149643
8.16165e-09
0.000149643
8.02865e-09
0.000149643
7.8936e-09
0.000149643
7.7579e-09
0.000149642
7.62459e-09
0.000149642
7.49113e-09
0.000149642
7.36135e-09
0.000149642
7.2391e-09
0.000149641
7.123e-09
0.000149641
7.01484e-09
0.000149641
6.91784e-09
0.000149641
6.83562e-09
0.00014964
6.77771e-09
0.00014964
6.75049e-09
0.00014964
6.76345e-09
0.00014964
6.82827e-09
0.00014964
6.95804e-09
0.00014964
7.17298e-09
0.000149639
7.49306e-09
0.000149639
7.94519e-09
0.000149639
8.55869e-09
0.000149639
9.37163e-09
0.000149639
1.04267e-08
0.000149639
1.17775e-08
0.000149639
1.34802e-08
0.000149639
1.56005e-08
0.00014964
1.82115e-08
0.00014964
2.13936e-08
0.00014964
2.52389e-08
0.000149641
2.98415e-08
0.000149642
3.53065e-08
0.000149643
4.17449e-08
0.000149644
4.92744e-08
0.000149645
5.80174e-08
0.000149647
6.81017e-08
0.000149648
7.96573e-08
0.000149651
9.28128e-08
0.000149653
1.07699e-07
0.000149656
1.24444e-07
0.00014966
1.43174e-07
0.000149663
1.64004e-07
0.000149668
1.87049e-07
0.000149673
2.12411e-07
0.000149678
2.40181e-07
0.000149684
2.70436e-07
0.00014969
3.03248e-07
0.000149697
3.38661e-07
0.000149705
3.76715e-07
0.000149713
4.17423e-07
0.000149721
4.6079e-07
0.00014973
5.06792e-07
0.000149739
5.55397e-07
0.000149748
6.06543e-07
0.000149756
6.60164e-07
0.000149765
7.16158e-07
0.000149773
7.74423e-07
0.000149779
8.34822e-07
0.000149785
8.97216e-07
0.000149789
9.61438e-07
0.000149792
1.02732e-06
0.000149792
1.09466e-06
0.000149789
1.16326e-06
0.000149783
1.23291e-06
0.000149773
1.30338e-06
0.000149758
1.37444e-06
0.000149739
1.44584e-06
0.000149714
1.51733e-06
0.000149682
1.58867e-06
0.000149644
1.6596e-06
0.000149598
1.72985e-06
0.000149544
1.79917e-06
0.000149481
1.86731e-06
0.000149409
1.93401e-06
0.000149327
1.99903e-06
0.000149234
2.06212e-06
0.000149129
2.12305e-06
0.000149014
2.18161e-06
0.000148886
2.23758e-06
0.000148746
2.29077e-06
0.000148593
2.34099e-06
0.000148427
2.38809e-06
0.000148249
2.43191e-06
0.000148057
2.47233e-06
0.000147852
2.50924e-06
0.000147634
2.54255e-06
0.000147403
2.5722e-06
0.00014716
2.59813e-06
0.000146905
2.62032e-06
0.000146637
2.63876e-06
0.000146358
2.65347e-06
0.000146068
2.66448e-06
0.000145768
2.67184e-06
0.000145458
2.67563e-06
0.000145139
2.67592e-06
0.000144812
2.67282e-06
0.000144477
2.66644e-06
0.000144134
2.6569e-06
0.000143786
2.64434e-06
0.000143432
2.62891e-06
0.000143074
2.61075e-06
0.000142711
2.59002e-06
0.000142345
2.56688e-06
0.000141977
2.5415e-06
0.000141606
2.51402e-06
0.000141235
2.48463e-06
0.000140863
2.45348e-06
0.000140491
2.42073e-06
0.00014012
2.38653e-06
0.00013975
2.35104e-06
0.000139382
2.31441e-06
0.000139016
2.27677e-06
0.000138653
2.23827e-06
0.000138293
2.19904e-06
0.000137936
2.15919e-06
0.000137583
2.11885e-06
0.000137235
2.07812e-06
0.000136891
2.03712e-06
0.000136551
1.99593e-06
0.000136217
1.95465e-06
0.000135888
1.91336e-06
0.000135564
1.87214e-06
0.000135246
1.83106e-06
0.000134933
1.79019e-06
0.000134626
1.74959e-06
0.000134324
1.70931e-06
0.000134029
1.66939e-06
0.000133739
1.6299e-06
1.59086e-06
0.000133456
0.000127809
-2.85787e-07
0.000127807
-4.69713e-08
0.000127807
-1.52636e-08
0.000127806
-9.32399e-09
0.000127806
-6.93969e-09
0.000127806
-5.20521e-09
0.000127806
-3.66252e-09
0.000127806
-2.27744e-09
0.000127806
-9.87819e-10
0.000127806
1.7054e-10
0.000127806
1.24786e-09
0.000127806
2.20354e-09
0.000127806
3.10255e-09
0.000127806
3.8954e-09
0.000127806
4.62769e-09
0.000127806
5.26877e-09
0.000127806
5.86044e-09
0.000127807
6.37625e-09
0.000127807
6.85339e-09
0.000127807
7.25962e-09
0.000127807
7.6302e-09
0.000127807
7.94253e-09
0.000127807
8.22845e-09
0.000127807
8.45915e-09
0.000127808
8.66719e-09
0.000127808
8.83078e-09
0.000127808
8.97522e-09
0.000127808
9.08047e-09
0.000127808
9.16932e-09
0.000127808
9.22744e-09
0.000127808
9.27095e-09
0.000127809
9.28999e-09
0.000127809
9.3e-09
0.000127809
9.28742e-09
0.000127809
9.25605e-09
0.000127809
9.21322e-09
0.000127809
9.15778e-09
0.00012781
9.09434e-09
0.00012781
9.01595e-09
0.00012781
8.93164e-09
0.00012781
8.8377e-09
0.00012781
8.73793e-09
0.00012781
8.63129e-09
0.000127811
8.51704e-09
0.000127811
8.39953e-09
0.000127811
8.27645e-09
0.000127811
8.15106e-09
0.000127811
8.02232e-09
0.000127811
7.89094e-09
0.000127811
7.75866e-09
0.000127811
7.62373e-09
0.000127812
7.49185e-09
0.000127812
7.36197e-09
0.000127812
7.2336e-09
0.000127812
7.11282e-09
0.000127812
6.99656e-09
0.000127812
6.89001e-09
0.000127812
6.78967e-09
0.000127812
6.70535e-09
0.000127813
6.64306e-09
0.000127813
6.60939e-09
0.000127813
6.61306e-09
0.000127813
6.66552e-09
0.000127813
6.77965e-09
0.000127813
6.97022e-09
0.000127814
7.25906e-09
0.000127814
7.67027e-09
0.000127814
8.23132e-09
0.000127815
8.97387e-09
0.000127815
9.94375e-09
0.000127816
1.11869e-08
0.000127816
1.2756e-08
0.000127817
1.47131e-08
0.000127818
1.71236e-08
0.00012782
2.00657e-08
0.000127821
2.36209e-08
0.000127823
2.78797e-08
0.000127826
3.29371e-08
0.000127828
3.88982e-08
0.000127832
4.58718e-08
0.000127836
5.39728e-08
0.000127841
6.332e-08
0.000127846
7.4034e-08
0.000127853
8.62374e-08
0.00012786
1.00053e-07
0.000127869
1.15602e-07
0.000127879
1.33001e-07
0.000127891
1.52367e-07
0.000127904
1.73804e-07
0.000127919
1.97416e-07
0.000127936
2.23293e-07
0.000127955
2.51517e-07
0.000127976
2.82155e-07
0.000127999
3.15272e-07
0.000128025
3.50905e-07
0.000128053
3.89088e-07
0.000128084
4.29833e-07
0.000128118
4.73147e-07
0.000128154
5.19005e-07
0.000128194
5.67387e-07
0.000128235
6.18237e-07
0.00012828
6.71505e-07
0.000128327
7.27106e-07
0.000128377
7.84957e-07
0.000128429
8.44944e-07
0.000128484
9.0696e-07
0.00012854
9.70866e-07
0.000128598
1.03652e-06
0.000128658
1.10378e-06
0.000128718
1.17246e-06
0.000128779
1.2424e-06
0.00012884
1.3134e-06
0.000128901
1.38528e-06
0.00012896
1.45784e-06
0.000129018
1.53086e-06
0.000129073
1.60414e-06
0.000129126
1.67744e-06
0.000129174
1.75054e-06
0.000129218
1.82322e-06
0.000129257
1.89525e-06
0.00012929
1.96638e-06
0.000129315
2.03639e-06
0.000129333
2.10503e-06
0.000129343
2.17209e-06
0.000129343
2.23733e-06
0.000129333
2.30053e-06
0.000129313
2.36147e-06
0.000129281
2.41994e-06
0.000129237
2.47573e-06
0.00012918
2.52866e-06
0.000129111
2.57856e-06
0.000129028
2.62525e-06
0.000128932
2.66859e-06
0.000128821
2.70845e-06
0.000128697
2.74471e-06
0.000128558
2.77728e-06
0.000128406
2.80608e-06
0.000128239
2.83106e-06
0.000128059
2.85217e-06
0.000127865
2.86942e-06
0.000127658
2.88279e-06
0.000127438
2.89233e-06
0.000127206
2.89806e-06
0.000126963
2.90007e-06
0.000126709
2.89842e-06
0.000126445
2.89323e-06
0.000126171
2.88459e-06
0.000125888
2.87263e-06
0.000125597
2.85751e-06
0.000125299
2.83935e-06
0.000124995
2.81833e-06
0.000124685
2.79459e-06
0.00012437
2.76832e-06
0.000124051
2.73968e-06
0.000123728
2.70884e-06
0.000123403
2.67598e-06
0.000123076
2.64127e-06
0.000122748
2.60489e-06
0.000122419
2.56699e-06
0.00012209
2.52775e-06
0.000121762
2.48732e-06
0.000121435
2.44586e-06
0.000121109
2.40351e-06
0.000120786
2.36042e-06
0.000120465
2.31671e-06
0.000120147
2.27252e-06
0.000119832
2.22796e-06
0.000119521
2.18314e-06
0.000119213
2.13817e-06
0.00011891
2.09315e-06
0.000118611
2.04816e-06
0.000118317
2.00329e-06
0.000118028
1.95862e-06
0.000117743
1.91421e-06
1.87012e-06
0.000117463
0.000109155
-2.72033e-07
0.000109151
-4.32457e-08
0.00010915
-1.42253e-08
0.00010915
-8.78873e-09
0.000109149
-6.56219e-09
0.000109149
-4.9265e-09
0.000109149
-3.46259e-09
0.000109149
-2.15421e-09
0.000109149
-9.33965e-10
0.000109149
1.59364e-10
0.000109149
1.18219e-09
0.000109149
2.08428e-09
0.000109149
2.93975e-09
0.000109149
3.6874e-09
0.000109149
4.38127e-09
0.00010915
4.9865e-09
0.00010915
5.54824e-09
0.00010915
6.0344e-09
0.000109151
6.48807e-09
0.000109151
6.87071e-09
0.000109152
7.223e-09
0.000109152
7.51706e-09
0.000109152
7.78997e-09
0.000109153
8.00706e-09
0.000109153
8.20373e-09
0.000109154
8.35803e-09
0.000109154
8.49666e-09
0.000109155
8.59389e-09
0.000109155
8.67982e-09
0.000109156
8.73281e-09
0.000109156
8.77566e-09
0.000109157
8.79312e-09
0.000109157
8.80358e-09
0.000109158
8.79237e-09
0.000109158
8.76248e-09
0.000109159
8.72226e-09
0.000109159
8.6692e-09
0.00010916
8.60928e-09
0.00010916
8.53575e-09
0.000109161
8.45631e-09
0.000109161
8.36788e-09
0.000109162
8.27365e-09
0.000109162
8.17255e-09
0.000109162
8.06511e-09
0.000109163
7.95289e-09
0.000109163
7.83694e-09
0.000109164
7.71842e-09
0.000109164
7.59648e-09
0.000109165
7.4727e-09
0.000109165
7.34617e-09
0.000109165
7.21967e-09
0.000109166
7.09315e-09
0.000109166
6.9694e-09
0.000109167
6.84837e-09
0.000109167
6.73541e-09
0.000109167
6.62424e-09
0.000109168
6.5211e-09
0.000109168
6.42485e-09
0.000109168
6.34067e-09
0.000109169
6.2767e-09
0.000109169
6.2396e-09
0.000109169
6.23621e-09
0.00010917
6.27608e-09
0.00010917
6.37123e-09
0.000109171
6.53788e-09
0.000109171
6.79099e-09
0.000109172
7.15334e-09
0.000109172
7.64744e-09
0.000109173
8.30566e-09
0.000109174
9.16481e-09
0.000109175
1.02709e-08
0.000109176
1.16693e-08
0.000109177
1.34133e-08
0.000109178
1.55663e-08
0.00010918
1.81946e-08
0.000109183
2.13724e-08
0.000109185
2.51798e-08
0.000109188
2.97023e-08