/*--------------------------------*- C++ -*----------------------------------*\
| =========                 |                                                 |
| \\      /  F ield         | OpenFOAM: The Open Source CFD Toolbox           |
|  \\    /   O peration     | Version:  2.1.1                                 |
|   \\  /    A nd           | Web:      www.OpenFOAM.org                      |
|    \\/     M anipulation  |                                                 |
\*---------------------------------------------------------------------------*/
FoamFile
{
    version     2.0;
    format      ascii;
    class       volVectorField;
    location    "0";
    object      U;
}
// * * * * * * * * * * * * * * * * * * * * * * * * * * * * * * * * * * * * * //

dimensions      [0 1 -1 0 0 0 0];

internalField   nonuniform List<vector> 
54800
(
(22.8842 -0.000839199 0)
(22.889 -0.000124189 0)
(22.8896 -4.77252e-06 -7.39603e-26)
(22.8895 1.81233e-05 -7.396e-26)
(22.8893 2.63234e-05 0)
(22.8891 3.20994e-05 1.47917e-25)
(22.8888 3.75381e-05 1.47915e-25)
(22.8885 4.26077e-05 0)
(22.8881 4.75693e-05 2.95822e-25)
(22.8877 5.24257e-05 2.95817e-25)
(22.8873 5.71673e-05 1.85389e-32)
(22.8869 6.1571e-05 0)
(22.8864 6.61213e-05 0)
(22.886 7.03915e-05 0)
(22.8855 7.46003e-05 0)
(22.885 7.85303e-05 5.91562e-25)
(22.8845 8.24887e-05 5.9155e-25)
(22.884 8.61754e-05 6.81682e-33)
(22.8835 8.99038e-05 0)
(22.883 9.34426e-05 0)
(22.8824 9.69187e-05 0)
(22.8819 0.000100183 0)
(22.8814 0.000103437 0)
(22.8809 0.000106569 0)
(22.8803 0.000109654 5.91441e-25)
(22.8798 0.00011259 5.91427e-25)
(22.8793 0.000115483 0)
(22.8788 0.000118242 5.914e-25)
(22.8783 0.000120963 5.91387e-25)
(22.8778 0.00012357 4.14914e-33)
(22.8772 0.000126141 -5.9136e-25)
(22.8767 0.000128604 -5.91347e-25)
(22.8763 0.000131018 0)
(22.8758 0.000133376 0)
(22.8753 0.000135637 -5.91309e-25)
(22.8748 0.000137819 -5.91296e-25)
(22.8743 0.000139879 3.72292e-33)
(22.8739 0.00014191 0)
(22.8734 0.000143847 4.12402e-33)
(22.873 0.000145726 0)
(22.8725 0.000147581 -5.91237e-25)
(22.8721 0.000149347 -5.91226e-25)
(22.8717 0.000151088 0)
(22.8713 0.000152849 -5.91204e-25)
(22.8709 0.00015455 -5.91194e-25)
(22.8705 0.000156193 2.68605e-33)
(22.8701 0.000157875 -5.91173e-25)
(22.8697 0.000159573 -5.91163e-25)
(22.8693 0.000161164 2.93721e-33)
(22.8689 0.000162815 0)
(22.8686 0.000164547 0)
(22.8682 0.000166308 0)
(22.8679 0.000168245 1.18223e-24)
(22.8675 0.000170284 1.18221e-24)
(22.8672 0.000172543 0)
(22.8669 0.000175173 0)
(22.8666 0.000178162 0)
(22.8663 0.000181631 1.98558e-33)
(22.866 0.000185807 0)
(22.8657 0.000190723 -1.18212e-24)
(22.8654 0.000196766 -2.3642e-24)
(22.8651 0.000204301 -1.18208e-24)
(22.8648 0.000213683 1.18207e-24)
(22.8645 0.00022551 1.18205e-24)
(22.8642 0.000240479 0)
(22.8639 0.000259435 0)
(22.8635 0.000283645 0)
(22.8632 0.000314245 0)
(22.8628 0.000353233 0)
(22.8624 0.000402375 -1.18195e-24)
(22.862 0.000464351 -9.99226e-32)
(22.8615 0.000542208 1.1819e-24)
(22.8609 0.000639517 0)
(22.8603 0.000760428 1.18184e-24)
(22.8595 0.000909927 1.1818e-24)
(22.8586 0.0010937 0)
(22.8575 0.00131836 0)
(22.8563 0.00159131 -1.18163e-24)
(22.8548 0.00192094 -1.18155e-24)
(22.853 0.00231684 0)
(22.851 0.00278943 -1.69543e-32)
(22.8485 0.00335025 2.04938e-32)
(22.8457 0.00401205 0)
(22.8424 0.00478848 -1.18091e-24)
(22.8385 0.00569436 -2.36142e-24)
(22.8341 0.00674563 -1.18048e-24)
(22.8289 0.00795864 0)
(22.823 0.00935096 1.17991e-24)
(22.8163 0.0109407 1.17956e-24)
(22.8087 0.0127466 0)
(22.8 0.0147876 0)
(22.7903 0.0170829 5.35803e-32)
(22.7794 0.0196512 -6.16847e-32)
(22.7673 0.0225118 -7.07113e-32)
(22.7538 0.0256825 0)
(22.7388 0.0291806 9.17547e-32)
(22.7224 0.0330224 0)
(22.7043 0.0372227 0)
(22.6846 0.0417948 0)
(22.6631 0.04675 0)
(22.6398 0.0520974 0)
(22.6147 0.0578443 0)
(22.5876 0.0639947 1.00805e-31)
(22.5586 0.0705504 -1.11149e-31)
(22.5277 0.0775107 0)
(22.4947 0.0848718 0)
(22.4597 0.092627 0)
(22.4227 0.100767 0)
(22.3836 0.10928 1.72254e-31)
(22.3426 0.11815 -1.15504e-24)
(22.2997 0.127361 -1.15282e-24)
(22.2548 0.136893 0)
(22.2081 0.146725 1.14808e-24)
(22.1595 0.156833 1.14556e-24)
(22.1092 0.167191 1.14296e-24)
(22.0573 0.177774 1.14027e-24)
(22.0038 0.188554 -1.48665e-31)
(21.9487 0.199503 0)
(21.8923 0.210592 0)
(21.8346 0.221793 -1.74886e-31)
(21.7757 0.233076 0)
(21.7157 0.244414 -1.92732e-31)
(21.6547 0.255779 0)
(21.5929 0.267144 -2.10663e-31)
(21.5303 0.278484 1.113e-24)
(21.467 0.289773 7.14251e-32)
(21.4032 0.300988 -1.10643e-24)
(21.3389 0.312108 0)
(21.2743 0.323112 0)
(21.2095 0.333981 0)
(21.1446 0.344698 1.09304e-24)
(21.0796 0.355248 1.08968e-24)
(21.0147 0.365617 0)
(20.9499 0.375792 0)
(20.8854 0.385762 0)
(20.8211 0.39552 0)
(20.7573 0.405056 -7.98647e-32)
(20.6938 0.414364 1.06972e-24)
(20.631 0.423441 1.06647e-24)
(20.5686 0.432281 -1.06325e-24)
(20.5069 0.440882 -1.06005e-24)
(20.4459 0.449243 8.85793e-32)
(20.3857 0.457363 9.01808e-32)
(20.3262 0.465242 -9.17347e-32)
(20.2675 0.472882 0)
(20.2096 0.480284 9.47014e-32)
(20.1527 0.487451 0)
(20.0966 0.494387 -4.87414e-32)
(20.0414 0.501093 0)
(19.9872 0.507576 -1.03317e-24)
(19.934 0.513838 -5.1263e-32)
(19.8817 0.519885 1.02771e-24)
(19.8304 0.525722 -1.02505e-24)
(19.7801 0.531354 -2.0449e-24)
(19.7308 0.536785 -1.0199e-24)
(19.6825 0.542022 1.0174e-24)
(19.6352 0.54707 1.01496e-24)
(19.5888 0.551935 1.01256e-24)
(19.5435 0.556622 1.01022e-24)
(19.4992 0.561137 -1.00792e-24)
(19.4559 0.565485 -1.00568e-24)
(19.4135 0.569671 -1.00349e-24)
(19.3721 0.573702 -2.0027e-24)
(19.3317 0.577583 -9.99258e-25)
(19.2922 0.581318 -9.97215e-25)
(19.2537 0.584914 -9.95222e-25)
(19.216 0.588374 9.93277e-25)
(19.1793 0.591705 1.98276e-24)
(19.1436 0.59491 9.89527e-25)
(19.1086 0.597995 -9.87721e-25)
(19.0746 0.600964 -9.85961e-25)
(19.0414 0.603821 9.84245e-25)
(19.0091 0.606571 9.82573e-25)
(18.9776 0.609217 0)
(18.9469 0.611764 -1.50791e-32)
(22.8837 -0.00231394 0)
(22.8879 -0.000335995 -1.4791e-25)
(22.8884 -1.21037e-05 -1.47913e-25)
(22.8884 4.97443e-05 -2.95825e-25)
(22.8882 7.21458e-05 -2.95822e-25)
(22.888 8.80036e-05 -1.21717e-32)
(22.8877 0.000102862 -5.91631e-25)
(22.8874 0.000116872 -5.91624e-25)
(22.8871 0.000130492 5.91614e-25)
(22.8868 0.00014376 5.91606e-25)
(22.8864 0.000156633 -2.16365e-32)
(22.886 0.000168995 -8.89156e-33)
(22.8857 0.00018121 -5.91573e-25)
(22.8853 0.000192877 -8.80643e-31)
(22.8848 0.000204366 9.04576e-31)
(22.8844 0.000215283 -5.91539e-25)
(22.884 0.000226034 0)
(22.8835 0.000236316 -1.18303e-24)
(22.8831 0.000246436 -1.93222e-30)
(22.8826 0.000256173 2.36596e-24)
(22.8822 0.00026567 1.18295e-24)
(22.8817 0.000274757 0)
(22.8813 0.000283703 -1.1829e-24)
(22.8808 0.000292304 -1.18288e-24)
(22.8803 0.000300696 0)
(22.8799 0.000308769 4.15475e-32)
(22.8794 0.000316704 -5.52344e-32)
(22.879 0.000324292 0)
(22.8785 0.000331708 -1.07479e-31)
(22.8781 0.000338905 -1.18272e-24)
(22.8776 0.000345913 -1.1827e-24)
(22.8772 0.00035268 -3.4886e-32)
(22.8768 0.000359324 -1.18265e-24)
(22.8763 0.000365737 -1.81553e-30)
(22.8759 0.00037191 1.1826e-24)
(22.8755 0.000377922 -3.99863e-32)
(22.8751 0.000383725 1.18256e-24)
(22.8747 0.00038935 1.18253e-24)
(22.8743 0.000394807 2.94641e-32)
(22.8739 0.000400106 1.18249e-24)
(22.8735 0.000405251 2.36494e-24)
(22.8731 0.000410256 1.18245e-24)
(22.8728 0.000415127 -1.18243e-24)
(22.8724 0.000419879 -1.18241e-24)
(22.8721 0.000424497 2.46986e-32)
(22.8717 0.000428992 2.36473e-24)
(22.8714 0.000433443 2.89312e-30)
(22.871 0.000437767 -2.36466e-24)
(22.8707 0.000441975 -2.36462e-24)
(22.8704 0.000446192 -2.71429e-30)
(22.8701 0.000450418 4.7291e-24)
(22.8698 0.000454669 2.36452e-24)
(22.8695 0.000459071 -1.02143e-32)
(22.8692 0.000463632 0)
(22.8689 0.000468493 0)
(22.8686 0.000473843 2.36438e-24)
(22.8683 0.000479832 4.72871e-24)
(22.868 0.000486603 4.72865e-24)
(22.8678 0.000494716 4.72859e-24)
(22.8675 0.000504432 4.72853e-24)
(22.8673 0.000516575 2.36424e-24)
(22.867 0.000531768 -1.08242e-32)
(22.8667 0.00055132 0)
(22.8665 0.00057648 1.1953e-32)
(22.8662 0.000609185 0)
(22.866 0.000651525 -2.36409e-24)
(22.8657 0.000706587 -2.36406e-24)
(22.8654 0.000777785 1.50942e-32)
(22.8651 0.000869777 0)
(22.8648 0.000987801 0)
(22.8644 0.00113852 0)
(22.864 0.00132996 -2.36388e-24)
(22.8635 0.00157165 -2.36383e-24)
(22.863 0.00187459 0)
(22.8624 0.00225212 2.71263e-32)
(22.8617 0.00271909 -2.36363e-24)
(22.8608 0.00329317 -4.72708e-24)
(22.8598 0.00399419 -4.72687e-24)
(22.8586 0.00484468 -1.32697e-30)
(22.8573 0.00586968 2.36316e-24)
(22.8556 0.00709751 4.31722e-32)
(22.8537 0.0085591 -2.36279e-24)
(22.8515 0.0102886 -2.36256e-24)
(22.8489 0.0123227 -7.71179e-32)
(22.8458 0.0147014 -2.36196e-24)
(22.8423 0.0174669 -1.13537e-30)
(22.8383 0.0206645 1.11455e-30)
(22.8336 0.0243413 -2.36069e-24)
(22.8284 0.028547 2.36013e-24)
(22.8223 0.0333322 4.719e-24)
(22.8155 0.0387493 2.35879e-24)
(22.8078 0.0448507 1.412e-31)
(22.7992 0.0516895 2.35708e-24)
(22.7896 0.0593179 8.2912e-31)
(22.7788 0.0677871 -4.7099e-24)
(22.767 0.0771464 -4.70741e-24)
(22.7538 0.0874427 -2.35233e-24)
(22.7394 0.0987195 0)
(22.7235 0.111017 0)
(22.7063 0.124369 2.34736e-24)
(22.6875 0.138807 9.98491e-31)
(22.6671 0.154355 -2.34327e-24)
(22.6451 0.17103 2.34096e-24)
(22.6214 0.188844 1.31065e-30)
(22.596 0.2078 -2.33583e-24)
(22.5688 0.227895 0)
(22.5399 0.249119 0)
(22.5091 0.271453 0)
(22.4765 0.29487 4.65063e-31)
(22.4421 0.319338 -5.03667e-31)
(22.4058 0.344816 0)
(22.3678 0.371257 -2.31199e-24)
(22.3279 0.398607 -2.30782e-24)
(22.2862 0.426807 0)
(22.2428 0.455792 -7.18837e-31)
(22.1977 0.485494 -3.82909e-31)
(22.151 0.515841 -4.06848e-31)
(22.1027 0.546755 -2.28431e-24)
(22.0528 0.57816 -4.55822e-24)
(22.0015 0.609976 -2.27376e-24)
(21.9488 0.642123 0)
(21.8949 0.674522 5.3191e-31)
(21.8397 0.707092 -5.57662e-31)
(21.7834 0.739756 -2.25102e-24)
(21.7262 0.772438 -2.24504e-24)
(21.6679 0.805065 -2.23897e-24)
(21.6089 0.837567 -2.23282e-24)
(21.5491 0.869876 6.86077e-31)
(21.4887 0.90193 7.11364e-31)
(21.4278 0.933669 0)
(21.3665 0.965039 -2.20756e-24)
(21.3048 0.99599 -4.40228e-24)
(21.2429 1.02648 -2.19469e-24)
(21.1808 1.05645 0)
(21.1187 1.08589 4.28243e-31)
(21.0566 1.11475 2.17529e-24)
(20.9946 1.14301 2.16884e-24)
(20.9328 1.17064 2.30849e-31)
(20.8713 1.19762 0)
(20.8101 1.22394 4.82696e-31)
(20.7493 1.24959 -4.92812e-31)
(20.689 1.27455 7.54e-31)
(20.6292 1.29882 2.5613e-31)
(20.57 1.3224 2.60753e-31)
(20.5115 1.34529 0)
(20.4536 1.36749 -2.11256e-24)
(20.3964 1.389 -4.21323e-24)
(20.34 1.40983 -2.10075e-24)
(20.2843 1.42999 0)
(20.2295 1.44949 2.08927e-24)
(20.1756 1.46834 2.08366e-24)
(20.1225 1.48655 0)
(20.0703 1.50413 -2.07272e-24)
(20.019 1.5211 -4.13478e-24)
(19.9686 1.53748 -2.06216e-24)
(19.9192 1.55327 0)
(19.8707 1.5685 0)
(19.8232 1.58318 2.04705e-24)
(19.7766 1.59732 2.04221e-24)
(19.731 1.61094 -2.03747e-24)
(19.6863 1.62406 -2.03283e-24)
(19.6426 1.6367 8.0691e-32)
(19.5998 1.64886 2.02385e-24)
(19.558 1.66057 3.77166e-31)
(19.5171 1.67184 -4.03053e-24)
(19.4771 1.68269 -2.01112e-24)
(19.4381 1.69313 -2.00707e-24)
(19.4 1.70317 -2.00311e-24)
(19.3628 1.71284 1.99925e-24)
(19.3265 1.72214 1.99548e-24)
(19.291 1.73108 8.53415e-32)
(19.2565 1.73969 -1.98821e-24)
(19.2228 1.74797 -1.98472e-24)
(19.1899 1.75594 0)
(19.1579 1.76361 -4.34742e-32)
(22.8829 -0.00337373 0)
(22.8861 -0.000473925 -1.05648e-30)
(22.8865 -1.46565e-05 3.14493e-31)
(22.8864 7.25072e-05 0)
(22.8863 0.000104566 2.03146e-31)
(22.8861 0.00012752 -5.91588e-25)
(22.8859 0.000148923 -5.91583e-25)
(22.8857 0.000169314 8.1285e-32)
(22.8855 0.000189097 -7.34996e-33)
(22.8852 0.000208194 0)
(22.8849 0.000226877 -5.91549e-25)
(22.8846 0.000244822 -5.91542e-25)
(22.8843 0.000262454 2.59775e-32)
(22.884 0.000279401 0)
(22.8837 0.000296002 0)
(22.8834 0.000311838 -1.183e-24)
(22.8831 0.000327396 -4.55272e-30)
(22.8827 0.000342329 2.36591e-24)
(22.8824 0.000356989 1.18294e-24)
(22.882 0.000371076 0)
(22.8817 0.000384854 -1.18289e-24)
(22.8813 0.000398034 -4.75406e-30)
(22.881 0.000411019 2.36568e-24)
(22.8806 0.000423458 1.18282e-24)
(22.8803 0.000435621 1.18279e-24)
(22.8799 0.000447315 1.18278e-24)
(22.8796 0.00045882 -2.0495e-31)
(22.8792 0.000469812 0)
(22.8789 0.000480555 -2.22514e-31)
(22.8785 0.00049097 1.18268e-24)
(22.8782 0.000501122 4.54995e-30)
(22.8779 0.000510928 -1.18264e-24)
(22.8775 0.000520583 0)
(22.8772 0.000529863 1.18259e-24)
(22.8769 0.000538817 1.18258e-24)
(22.8766 0.000547524 -7.42354e-32)
(22.8763 0.000555968 0)
(22.876 0.000564144 -7.75926e-32)
(22.8757 0.000572086 0)
(22.8754 0.00057983 2.36495e-24)
(22.8751 0.000587301 2.36492e-24)
(22.8748 0.000594581 2.36487e-24)
(22.8745 0.000601696 2.36484e-24)
(22.8742 0.000608574 2.3648e-24)
(22.8739 0.000615245 4.72953e-24)
(22.8737 0.000621765 4.72946e-24)
(22.8734 0.000628161 2.3647e-24)
(22.8732 0.000634345 5.07891e-33)
(22.8729 0.000640422 0)
(22.8727 0.000646426 4.20293e-32)
(22.8724 0.000652367 -2.36456e-24)
(22.8722 0.000658398 -6.27868e-30)
(22.872 0.000664483 2.36451e-24)
(22.8717 0.000670778 -2.36447e-24)
(22.8715 0.000677445 -4.7289e-24)
(22.8713 0.000684635 -2.36442e-24)
(22.8711 0.00069265 2.36439e-24)
(22.8709 0.000701622 5.46206e-30)
(22.8707 0.000712169 -4.72868e-24)
(22.8705 0.000724976 -2.36432e-24)
(22.8703 0.000740894 -2.36428e-24)
(22.8701 0.000760914 -2.36426e-24)
(22.8699 0.000786744 2.36424e-24)
(22.8697 0.000820152 2.36422e-24)
(22.8695 0.000863666 2.36419e-24)
(22.8693 0.000920521 2.36417e-24)
(22.8691 0.000994444 -2.05628e-32)
(22.8689 0.00109062 -2.04503e-32)
(22.8687 0.00121498 4.97212e-32)
(22.8685 0.00137523 -2.36406e-24)
(22.8682 0.0015803 -2.36403e-24)
(22.8679 0.00184144 4.19442e-32)
(22.8676 0.00217162 -5.02793e-32)
(22.8673 0.00258645 0)
(22.8669 0.00310389 -2.36387e-24)
(22.8664 0.00374501 -2.36382e-24)
(22.8659 0.00453393 -1.08644e-31)
(22.8653 0.00549841 -1.32991e-31)
(22.8645 0.0066696 0)
(22.8637 0.00808252 -1.98225e-31)
(22.8627 0.00977632 1.21125e-31)
(22.8615 0.0117943 0)
(22.8601 0.014184 1.76123e-31)
(22.8585 0.016997 0)
(22.8567 0.0202891 2.5318e-31)
(22.8545 0.0241197 2.36252e-24)
(22.8521 0.0285528 2.36225e-24)
(22.8492 0.0336555 0)
(22.846 0.0394978 0)
(22.8423 0.0461526 2.36119e-24)
(22.8381 0.0536949 2.36074e-24)
(22.8334 0.0622014 -7.82192e-31)
(22.8281 0.0717494 -4.51669e-31)
(22.8221 0.0824163 -2.35901e-24)
(22.8154 0.0942787 -2.3583e-24)
(22.808 0.107412 0)
(22.7997 0.121889 0)
(22.7906 0.137779 0)
(22.7806 0.155147 0)
(22.7696 0.174052 0)
(22.7575 0.19455 1.22634e-30)
(22.7443 0.216686 2.35065e-24)
(22.73 0.2405 2.34911e-24)
(22.7144 0.266023 8.38857e-31)
(22.6975 0.293276 0)
(22.6794 0.322272 1.01619e-30)
(22.6598 0.353012 -1.11319e-30)
(22.6389 0.385489 0)
(22.6164 0.419682 2.33695e-24)
(22.5925 0.455564 2.33439e-24)
(22.567 0.493093 -2.33166e-24)
(22.5399 0.53222 -2.32877e-24)
(22.5112 0.572883 2.32571e-24)
(22.4809 0.615012 2.32248e-24)
(22.449 0.658529 -1.0387e-30)
(22.4154 0.703346 0)
(22.3802 0.749367 -1.18194e-30)
(22.3433 0.796491 -2.30783e-24)
(22.3048 0.844611 -3.96416e-30)
(22.2648 0.893614 2.63748e-30)
(22.2231 0.943385 -4.14721e-30)
(22.18 0.993805 2.29048e-24)
(22.1353 1.04475 8.23951e-31)
(22.0892 1.09611 8.64541e-31)
(22.0418 1.14776 2.71577e-30)
(21.993 1.19957 9.46157e-31)
(21.943 1.25144 0)
(21.8918 1.30324 2.05584e-30)
(21.8396 1.35488 2.25443e-24)
(21.7863 1.40624 1.54838e-30)
(21.7321 1.45723 -3.7916e-30)
(21.6771 1.50776 4.47455e-24)
(21.6214 1.55773 2.61441e-30)
(21.565 1.60706 -2.22545e-24)
(21.508 1.65569 -6.52949e-31)
(21.4506 1.70353 2.21339e-24)
(21.3928 1.75054 2.2073e-24)
(21.3347 1.79666 0)
(21.2764 1.84184 -2.19506e-24)
(21.218 1.88604 -2.18892e-24)
(21.1596 1.92923 2.18277e-24)
(21.1013 1.97138 3.15594e-30)
(21.0431 2.01246 -2.3444e-30)
(20.985 2.05246 2.16443e-24)
(20.9273 2.09137 0)
(20.8699 2.12918 0)
(20.8129 2.16589 -8.5421e-31)
(20.7564 2.2015 -2.14044e-24)
(20.7004 2.23601 -1.23931e-30)
(20.645 2.26943 4.25751e-24)
(20.5902 2.30178 2.95729e-30)
(20.536 2.33307 -4.23467e-24)
(20.4825 2.36331 -2.11174e-24)
(20.4298 2.39253 -2.10621e-24)
(20.3778 2.42074 -2.10078e-24)
(20.3266 2.44796 0)
(20.2763 2.47423 0)
(20.2267 2.49955 0)
(20.1781 2.52396 -2.07987e-24)
(20.1302 2.54749 -4.14975e-24)
(20.0833 2.57015 -2.06997e-24)
(20.0373 2.59197 0)
(19.9921 2.61298 0)
(19.9479 2.6332 -2.59639e-31)
(19.9045 2.65267 0)
(19.8621 2.6714 -2.634e-31)
(19.8205 2.68942 2.04251e-24)
(19.7799 2.70675 2.03827e-24)
(19.7402 2.72343 -2.03412e-24)
(19.7013 2.73946 -1.45955e-30)
(19.6633 2.75489 2.0261e-24)
(19.6262 2.76972 2.13046e-36)
(19.59 2.78399 1.37254e-31)
(19.5547 2.79771 -2.01477e-24)
(19.5202 2.8109 -1.0235e-30)
(22.8819 -0.00403681 -1.38755e-29)
(22.884 -0.000544511 2.59129e-30)
(22.8841 -1.33879e-05 -2.95769e-25)
(22.8841 8.68266e-05 -2.95768e-25)
(22.884 0.000124351 3.86205e-31)
(22.8839 0.000151604 -2.95763e-25)
(22.8838 0.00017694 -8.87283e-25)
(22.8836 0.000201158 -1.18303e-24)
(22.8835 0.00022474 -1.18302e-24)
(22.8833 0.000247359 -5.91504e-25)
(22.8831 0.000269657 -8.33355e-32)
(22.883 0.000290897 5.40457e-32)
(22.8828 0.000311862 6.59021e-32)
(22.8826 0.000332028 0)
(22.8824 0.000351758 1.18292e-24)
(22.8822 0.000370563 1.18291e-24)
(22.882 0.000389055 1.18288e-24)
(22.8817 0.000406801 1.18287e-24)
(22.8815 0.000424258 -1.34756e-31)
(22.8813 0.000440969 1.18282e-24)
(22.8811 0.000457359 2.36562e-24)
(22.8809 0.000473019 7.91997e-30)
(22.8806 0.000488497 -1.18277e-24)
(22.8804 0.000503234 -1.9857e-31)
(22.8802 0.000517715 -3.26374e-31)
(22.88 0.000531603 -1.10746e-31)
(22.8798 0.000545284 -1.27237e-31)
(22.8795 0.000558346 -1.18267e-24)
(22.8793 0.000571138 -8.15974e-30)
(22.8791 0.000583466 7.69328e-30)
(22.8789 0.000595561 -7.88324e-30)
(22.8787 0.000607212 1.1826e-24)
(22.8785 0.00061871 -1.18257e-24)
(22.8783 0.000629748 -1.18256e-24)
(22.8781 0.000640397 -1.65665e-31)
(22.8779 0.000650742 0)
(22.8777 0.000660794 1.62929e-31)
(22.8775 0.000670562 0)
(22.8773 0.000679998 -2.36494e-24)
(22.8771 0.000689219 -2.36492e-24)
(22.8769 0.000698143 -2.36487e-24)
(22.8767 0.000706812 -2.36485e-24)
(22.8765 0.00071529 -2.36481e-24)
(22.8764 0.000723481 -4.72957e-24)
(22.8762 0.000731398 -4.72951e-24)
(22.876 0.000739145 -2.36473e-24)
(22.8759 0.000746721 2.36469e-24)
(22.8757 0.000754035 2.36467e-24)
(22.8755 0.000761266 -2.36463e-24)
(22.8754 0.000768348 -4.72922e-24)
(22.8752 0.000775327 -1.0929e-29)
(22.8751 0.00078238 2.36456e-24)
(22.8749 0.000789483 2.36453e-24)
(22.8748 0.000796757 1.01562e-29)
(22.8746 0.000804513 -2.36449e-24)
(22.8745 0.000812736 -5.60807e-32)
(22.8744 0.000821865 -5.70001e-32)
(22.8742 0.000832026 -3.03863e-32)
(22.8741 0.000843754 -5.9214e-32)
(22.874 0.000857997 3.16984e-32)
(22.8739 0.000875775 -2.36434e-24)
(22.8738 0.000898094 -2.36433e-24)
(22.8736 0.000926785 0)
(22.8735 0.000963969 0)
(22.8734 0.00101246 3.94954e-32)
(22.8733 0.00107574 -4.26917e-32)
(22.8732 0.00115831 0)
(22.8731 0.0012656 -5.22733e-32)
(22.8729 0.00140449 1.37298e-33)
(22.8728 0.00158345 -2.36417e-24)
(22.8727 0.00181298 -6.73448e-30)
(22.8726 0.00210533 2.36413e-24)
(22.8724 0.00247534 -2.3641e-24)
(22.8723 0.00294037 -2.36409e-24)
(22.8721 0.0035208 -8.30663e-32)
(22.8719 0.00424034 0)
(22.8717 0.00512628 -2.364e-24)
(22.8715 0.00620976 -5.73742e-30)
(22.8712 0.00752616 5.44267e-30)
(22.8709 0.00911488 -2.36389e-24)
(22.8706 0.0110206 0)
(22.8702 0.013292 2.36379e-24)
(22.8697 0.0159833 2.36373e-24)
(22.8692 0.0191528 -2.36366e-24)
(22.8685 0.0228647 -2.36358e-24)
(22.8678 0.0271868 2.36349e-24)
(22.867 0.0321924 2.36339e-24)
(22.866 0.0379588 -2.36326e-24)
(22.8649 0.0445673 -2.36313e-24)
(22.8637 0.0521026 6.54382e-31)
(22.8623 0.0606525 0)
(22.8606 0.0703081 2.36259e-24)
(22.8588 0.0811611 5.11272e-30)
(22.8567 0.093305 -3.45292e-30)
(22.8543 0.106833 4.72364e-24)
(22.8516 0.12184 2.3615e-24)
(22.8486 0.138416 -2.36113e-24)
(22.8452 0.156652 -2.36073e-24)
(22.8414 0.176634 -2.36027e-24)
(22.8372 0.198444 -2.35977e-24)
(22.8324 0.22216 2.3592e-24)
(22.8272 0.247852 5.42542e-30)
(22.8213 0.275584 -2.35788e-24)
(22.8148 0.305414 2.35711e-24)
(22.8076 0.337389 2.35627e-24)
(22.7996 0.371546 1.17167e-30)
(22.7908 0.407915 -2.35432e-24)
(22.7811 0.446513 -2.3532e-24)
(22.7705 0.487346 -2.35198e-24)
(22.7589 0.530408 -2.35064e-24)
(22.7462 0.575682 0)
(22.7323 0.623139 0)
(22.7172 0.672735 0)
(22.7009 0.724418 2.28505e-30)
(22.6832 0.77812 0)
(22.6642 0.833764 0)
(22.6437 0.89126 -1.4058e-30)
(22.6216 0.950509 0)
(22.5981 1.0114 -1.59535e-30)
(22.5729 1.07381 -1.69378e-30)
(22.5462 1.13762 -3.58895e-30)
(22.5178 1.20269 1.89712e-30)
(22.4877 1.26889 -2.32034e-24)
(22.4559 1.33605 -2.31685e-24)
(22.4225 1.40404 4.42962e-30)
(22.3875 1.4727 -2.30935e-24)
(22.3507 1.54188 -2.30534e-24)
(22.3124 1.61143 1.27102e-30)
(22.2725 1.68119 1.32603e-30)
(22.231 1.75101 -1.38113e-30)
(22.1881 1.82075 -1.43614e-30)
(22.1437 1.89025 2.28286e-24)
(22.098 1.9594 4.55585e-24)
(22.051 2.02805 2.27285e-24)
(22.0028 2.09608 2.26765e-24)
(21.9534 2.16337 4.27252e-30)
(21.903 2.22981 -2.25693e-24)
(21.8517 2.29531 0)
(21.7995 2.35978 -2.24583e-24)
(21.7466 2.42312 -4.48032e-24)
(21.693 2.48526 -2.23443e-24)
(21.6388 2.54615 -1.00418e-30)
(21.5842 2.60572 0)
(21.5292 2.66392 1.05064e-30)
(21.4739 2.72072 2.21105e-24)
(21.4184 2.77608 2.20514e-24)
(21.3629 2.82997 -1.01173e-35)
(21.3073 2.88239 0)
(21.2518 2.93332 1.00674e-35)
(21.1964 2.98275 0)
(21.1412 3.03068 5.97655e-31)
(21.0864 3.07713 2.16988e-24)
(21.0319 3.12209 2.16411e-24)
(20.9778 3.1656 0)
(20.9242 3.20765 -1.26511e-30)
(20.8711 3.24829 0)
(20.8185 3.28752 0)
(20.7666 3.32539 6.55771e-31)
(20.7154 3.36191 -2.13064e-24)
(20.6648 3.39712 -2.1253e-24)
(20.615 3.43106 2.12004e-24)
(20.5659 3.46375 2.81841e-30)
(20.5176 3.49523 -4.21956e-24)
(20.4701 3.52553 -4.20955e-24)
(20.4235 3.55469 -2.27158e-30)
(20.3776 3.58275 2.09503e-24)
(20.3326 3.60975 0)
(20.2885 3.63571 -3.58488e-31)
(20.2452 3.66067 2.0811e-24)
(20.2028 3.68467 4.15327e-24)
(20.1612 3.70774 2.27151e-30)
(20.1206 3.72991 -2.74531e-30)
(20.0808 3.75122 2.06382e-24)
(20.0418 3.7717 0)
(20.0038 3.79139 1.8692e-31)
(22.8808 -0.00436372 -1.49317e-29)
(22.8816 -0.000562774 -2.85935e-32)
(22.8816 -9.85537e-06 -1.47868e-25)
(22.8816 9.39371e-05 -1.47868e-25)
(22.8815 0.000133627 2.95733e-25)
(22.8815 0.000162803 2.95733e-25)
(22.8814 0.000189973 2.95729e-25)
(22.8814 0.000215885 2.95728e-25)
(22.8813 0.000241278 -4.03943e-32)
(22.8813 0.000265527 1.21417e-33)
(22.8812 0.000289538 -5.1886e-32)
(22.8811 0.000312249 8.85746e-32)
(22.8811 0.000334808 -5.91421e-25)
(22.881 0.000356457 -5.91419e-25)
(22.8809 0.000377643 0)
(22.8808 0.000397814 0)
(22.8808 0.000417687 0)
(22.8807 0.000436718 -1.18277e-24)
(22.8806 0.000455509 -1.18276e-24)
(22.8805 0.000473406 -1.18274e-24)
(22.8804 0.000491029 -1.18273e-24)
(22.8803 0.000507829 -2.02282e-31)
(22.8803 0.000524498 -1.18269e-24)
(22.8802 0.00054027 -1.18268e-24)
(22.8801 0.000555854 -2.41079e-31)
(22.88 0.00057074 1.18264e-24)
(22.8799 0.00058545 1.15247e-29)
(22.8798 0.000599441 -1.18262e-24)
(22.8798 0.000613228 1.18259e-24)
(22.8797 0.000626409 1.12547e-29)
(22.8796 0.000639437 -1.18257e-24)
(22.8795 0.000651935 1.59345e-31)
(22.8794 0.000664314 1.60778e-31)
(22.8794 0.000676183 1.69141e-31)
(22.8793 0.000687601 -1.1825e-24)
(22.8792 0.000698709 -1.1825e-24)
(22.8791 0.000709532 3.61651e-31)
(22.8791 0.000720052 -1.18246e-24)
(22.879 0.000730192 -2.3649e-24)
(22.8789 0.000740094 -2.36487e-24)
(22.8788 0.0007497 -9.62581e-30)
(22.8788 0.000759065 1.18241e-24)
(22.8787 0.000768151 0)
(22.8786 0.000776941 -1.0492e-31)
(22.8786 0.000785499 0)
(22.8785 0.000793776 1.06532e-31)
(22.8784 0.000801922 0)
(22.8784 0.000809756 -1.18233e-24)
(22.8783 0.000817515 -2.36465e-24)
(22.8783 0.000825086 -1.18232e-24)
(22.8782 0.000832552 2.3646e-24)
(22.8781 0.00084004 2.36459e-24)
(22.8781 0.000847577 -5.86988e-32)
(22.878 0.00085527 0)
(22.878 0.000863485 -2.36451e-24)
(22.8779 0.000872183 -2.36451e-24)
(22.8779 0.000881633 -8.92779e-34)
(22.8778 0.000892134 0)
(22.8778 0.000904155 -8.98624e-34)
(22.8777 0.000918684 0)
(22.8777 0.000936759 3.38523e-32)
(22.8776 0.000959476 -4.43344e-34)
(22.8776 0.000988581 3.6469e-32)
(22.8776 0.00102627 2.36436e-24)
(22.8775 0.00107534 2.36435e-24)
(22.8775 0.00113935 4.40808e-32)
(22.8775 0.00122282 0)
(22.8774 0.00133127 0)
(22.8774 0.00147154 2.36429e-24)
(22.8774 0.00165233 4.72856e-24)
(22.8774 0.00188431 9.63063e-30)
(22.8774 0.00217988 -9.37917e-30)
(22.8774 0.00255404 9.08181e-30)
(22.8775 0.00302435 -2.36425e-24)
(22.8775 0.00361151 0)
(22.8776 0.00433981 -1.02831e-31)
(22.8777 0.00523657 -2.36423e-24)
(22.8778 0.00633358 -8.02578e-30)
(22.878 0.00766672 2.36424e-24)
(22.8782 0.00927618 2.36424e-24)
(22.8784 0.0112072 4.72852e-24)
(22.8787 0.0135099 6.92447e-30)
(22.8791 0.0162393 -2.3643e-24)
(22.8795 0.0194551 2.42197e-31)
(22.88 0.0232228 -2.36435e-24)
(22.8805 0.0276128 -2.36439e-24)
(22.8812 0.0327002 0)
(22.8819 0.0385648 0)
(22.8828 0.0452915 2.36454e-24)
(22.8837 0.0529684 2.36461e-24)
(22.8848 0.0616881 0)
(22.886 0.0715466 1.12479e-34)
(22.8873 0.0826422 1.03984e-30)
(22.8888 0.095075 1.79503e-30)
(22.8904 0.108948 -6.85931e-31)
(22.8921 0.124363 -2.36518e-24)
(22.8939 0.141424 -2.36531e-24)
(22.8959 0.160232 -1.00953e-30)
(22.8979 0.18089 1.13989e-30)
(22.9 0.203494 -2.3657e-24)
(22.9022 0.228141 -2.36584e-24)
(22.9045 0.254922 -2.36596e-24)
(22.9067 0.283923 -2.3661e-24)
(22.9089 0.315225 1.98767e-30)
(22.9111 0.348903 -2.3663e-24)
(22.9131 0.385022 -4.13541e-30)
(22.9149 0.423643 2.36642e-24)
(22.9166 0.464814 2.36643e-24)
(22.9179 0.508576 5.41367e-30)
(22.9188 0.554957 -3.68692e-30)
(22.9193 0.603978 2.36621e-24)
(22.9192 0.655645 0)
(22.9186 0.709953 0)
(22.9172 0.766884 2.89126e-35)
(22.9149 0.826409 -2.36493e-24)
(22.9118 0.888482 -5.6693e-30)
(22.9077 0.95305 2.36371e-24)
(22.9024 1.02004 0)
(22.8959 1.08937 2.36199e-24)
(22.8881 1.16094 2.17333e-30)
(22.8789 1.23465 -7.82385e-30)
(22.8682 1.31038 2.35832e-24)
(22.8559 1.38799 2.35675e-24)
(22.8419 1.46734 5.97608e-30)
(22.8262 1.54828 -2.35308e-24)
(22.8086 1.63065 -1.40447e-35)
(22.7892 1.71427 0)
(22.7679 1.79899 0)
(22.7446 1.88462 2.34341e-24)
(22.7194 1.97097 6.07692e-30)
(22.6922 2.05786 -2.33735e-24)
(22.663 2.14511 0)
(22.6318 2.23253 0)
(22.5987 2.31994 2.32672e-24)
(22.5637 2.40716 4.64555e-24)
(22.5268 2.49402 2.31864e-24)
(22.4882 2.58036 2.31432e-24)
(22.4478 2.666 2.30983e-24)
(22.4057 2.7508 2.30516e-24)
(22.3621 2.83462 2.30035e-24)
(22.317 2.91732 2.29538e-24)
(22.2705 2.99878 2.29027e-24)
(22.2227 3.07888 1.2143e-30)
(22.1738 3.15752 1.24532e-30)
(22.1238 3.23462 1.27573e-30)
(22.0728 3.31009 1.3055e-30)
(22.021 3.38386 1.3346e-30)
(21.9685 3.45588 0)
(21.9154 3.52609 -1.3907e-30)
(21.8617 3.59446 1.41766e-30)
(21.8077 3.66095 0)
(21.7533 3.72556 7.34689e-31)
(21.6988 3.78826 -7.47054e-31)
(21.6441 3.84906 0)
(21.5895 3.90796 -1.54132e-30)
(21.5349 3.96496 -2.21063e-24)
(21.4805 4.02008 -2.2048e-24)
(21.4263 4.07335 -2.199e-24)
(21.3724 4.12479 -2.19324e-24)
(21.3189 4.17443 -2.18752e-24)
(21.2659 4.2223 -2.18187e-24)
(21.2133 4.26845 -2.17626e-24)
(21.1614 4.31291 -4.06211e-30)
(21.11 4.35572 4.85166e-30)
(21.0592 4.39692 -2.15985e-24)
(21.0092 4.43657 0)
(20.9599 4.4747 -2.14928e-24)
(20.9113 4.51137 -2.14413e-24)
(20.8635 4.54661 2.13905e-24)
(20.8165 4.58048 3.43522e-30)
(20.7703 4.61301 -2.91459e-30)
(20.7249 4.64427 2.12436e-24)
(20.6804 4.67429 2.11965e-24)
(20.6367 4.70312 2.11503e-24)
(20.5939 4.73079 2.1105e-24)
(22.8797 -0.00442703 0)
(22.8793 -0.000544777 -2.62057e-30)
(22.8791 -5.44536e-06 -8.6274e-31)
(22.8791 9.53617e-05 -2.6853e-31)
(22.8791 0.000134787 2.957e-25)
(22.8791 0.000164099 2.14073e-30)
(22.8791 0.000191494 -2.95699e-25)
(22.8792 0.000217512 0)
(22.8792 0.000243161 -5.91385e-25)
(22.8792 0.0002676 -5.91386e-25)
(22.8793 0.000291782 0)
(22.8793 0.000314648 0)
(22.8794 0.000337476 5.91365e-25)
(22.8794 0.000359222 1.18272e-24)
(22.8795 0.000380603 1.18271e-24)
(22.8795 0.000400902 1.1827e-24)
(22.8796 0.000420969 7.3984e-30)
(22.8796 0.000440107 -5.91343e-25)
(22.8797 0.000459109 5.91329e-25)
(22.8797 0.000477091 5.9133e-25)
(22.8798 0.000494894 0)
(22.8798 0.000511799 -1.18262e-24)
(22.8799 0.000528646 -1.18262e-24)
(22.8799 0.000544496 2.24753e-31)
(22.88 0.000560253 0)
(22.88 0.000575211 -2.49574e-31)
(22.8801 0.000590077 0)
(22.8801 0.000604124 1.18255e-24)
(22.8802 0.00061807 1.18255e-24)
(22.8802 0.000631316 1.4745e-31)
(22.8803 0.000644478 0)
(22.8803 0.000657058 0)
(22.8804 0.000669603 3.27708e-31)
(22.8804 0.000681578 0)
(22.8805 0.000693056 1.74271e-31)
(22.8805 0.000704261 -1.78799e-31)
(22.8806 0.000715184 3.64518e-31)
(22.8806 0.000725828 1.18243e-24)
(22.8807 0.000736049 1.29983e-29)
(22.8807 0.000746069 -1.18242e-24)
(22.8808 0.000755737 -1.1824e-24)
(22.8808 0.000765231 -1.1824e-24)
(22.8808 0.000774391 0)
(22.8809 0.000783224 0)
(22.8809 0.000791906 1.18236e-24)
(22.881 0.000800229 1.18236e-24)
(22.881 0.000808451 -1.10437e-31)
(22.881 0.000816381 -1.18233e-24)
(22.8811 0.000824179 -2.36466e-24)
(22.8811 0.000831782 -1.18233e-24)
(22.8812 0.000839248 0)
(22.8812 0.00084677 -1.1823e-24)
(22.8812 0.000854351 -9.80283e-30)
(22.8813 0.000862019 9.58281e-30)
(22.8813 0.000870229 -9.30149e-30)
(22.8813 0.00087889 9.08721e-30)
(22.8813 0.000888231 -1.18227e-24)
(22.8814 0.000898409 -1.18225e-24)
(22.8814 0.000910086 -1.18225e-24)
(22.8814 0.000924135 0)
(22.8815 0.000941485 3.40887e-32)
(22.8815 0.00096329 7.0617e-32)
(22.8815 0.000991251 3.66015e-32)
(22.8816 0.00102728 0)
(22.8816 0.00107412 4.07848e-32)
(22.8817 0.00113512 4.38647e-32)
(22.8817 0.0012146 4.81137e-32)
(22.8818 0.00131774 0)
(22.8819 0.00145093 0)
(22.882 0.00162272 2.36373e-34)
(22.8821 0.00184312 7.98456e-32)
(22.8822 0.00212389 -1.18219e-24)
(22.8824 0.0024794 -5.95893e-30)
(22.8826 0.00292621 1.1822e-24)
(22.8828 0.00348425 -1.1822e-24)
(22.8831 0.00417643 -1.18222e-24)
(22.8834 0.00502886 1.18222e-24)
(22.8839 0.00607168 1.18224e-24)
(22.8844 0.00733912 1.18226e-24)
(22.885 0.00886964 1.18228e-24)
(22.8858 0.0107063 1.18231e-24)
(22.8866 0.012897 4.71955e-30)
(22.8877 0.0154946 -1.18239e-24)
(22.8889 0.0185562 2.3085e-31)
(22.8903 0.0221447 0)
(22.8919 0.0263276 1.18257e-24)