/*--------------------------------*- C++ -*----------------------------------*\
| =========                 |                                                 |
| \\      /  F ield         | OpenFOAM: The Open Source CFD Toolbox           |
|  \\    /   O peration     | Version:  2.1.1                                 |
|   \\  /    A nd           | Web:      www.OpenFOAM.org                      |
|    \\/     M anipulation  |                                                 |
\*---------------------------------------------------------------------------*/
FoamFile
{
    version     2.0;
    format      ascii;
    class       volScalarField;
    location    "0";
    object      y;
}
// * * * * * * * * * * * * * * * * * * * * * * * * * * * * * * * * * * * * * //

dimensions      [0 1 0 0 0 0 0];

internalField   nonuniform List<scalar> 
54800
(
0.0029331
0.0029331
0.0029331
0.0029331
0.00293311
0.00293312
0.00293313
0.00293315
0.00293316
0.00293318
0.0029332
0.00293322
0.00293324
0.00293326
0.00293328
0.00293331
0.00293333
0.00293336
0.00293338
0.00293341
0.00293344
0.00293346
0.00293349
0.00293352
0.00293354
0.00293357
0.0029336
0.00293362
0.00293365
0.00293368
0.0029337
0.00293373
0.00293375
0.00293378
0.0029338
0.00293383
0.00293385
0.00293388
0.0029339
0.00293392
0.00293395
0.00293397
0.00293399
0.00293401
0.00293404
0.00293406
0.00293408
0.0029341
0.00293412
0.00293414
0.00293415
0.00293417
0.00293419
0.00293421
0.00293423
0.00293424
0.00293426
0.00293428
0.00293429
0.00293431
0.00293432
0.00293434
0.00293435
0.00293437
0.00293438
0.00293439
0.00293441
0.00293442
0.00293443
0.00293444
0.00293445
0.00293447
0.00293448
0.00293449
0.0029345
0.00293451
0.00293452
0.00293453
0.00293454
0.00293455
0.00293456
0.00293456
0.00293457
0.00293458
0.00293459
0.0029346
0.0029346
0.00293461
0.00293462
0.00293463
0.00293463
0.00293464
0.00293465
0.00293465
0.00293466
0.00293466
0.00293467
0.00293467
0.00293468
0.00293469
0.00293469
0.0029347
0.0029347
0.0029347
0.00293471
0.00293471
0.00293472
0.00293472
0.00293473
0.00293473
0.00293473
0.00293474
0.00293474
0.00293474
0.00293475
0.00293475
0.00293475
0.00293476
0.00293476
0.00293476
0.00293477
0.00293477
0.00293477
0.00293477
0.00293478
0.00293478
0.00293478
0.00293478
0.00293479
0.00293479
0.00293479
0.00293479
0.00293479
0.0029348
0.0029348
0.0029348
0.0029348
0.0029348
0.00293481
0.00293481
0.00293481
0.00293481
0.00293481
0.00293481
0.00293481
0.00293482
0.00293482
0.00293482
0.00293482
0.00293482
0.00293482
0.00293482
0.00293482
0.00293483
0.00293483
0.00293483
0.00293483
0.00293483
0.00293483
0.00293483
0.00293483
0.00293483
0.00293483
0.00293483
0.00293483
0.00293484
0.00293484
0.00293484
0.00293484
0.00293484
0.00293484
0.00293484
0.00293484
0.00293484
0.00293484
0.00248459
0.00248457
0.00248457
0.00248456
0.00248456
0.00248457
0.00248457
0.00248458
0.00248459
0.0024846
0.00248461
0.00248463
0.00248465
0.00248466
0.00248468
0.0024847
0.00248472
0.00248475
0.00248477
0.00248479
0.00248482
0.00248484
0.00248486
0.00248489
0.00248491
0.00248494
0.00248496
0.00248499
0.00248501
0.00248504
0.00248506
0.00248509
0.00248511
0.00248514
0.00248516
0.00248518
0.00248521
0.00248523
0.00248525
0.00248528
0.0024853
0.00248532
0.00248534
0.00248536
0.00248538
0.0024854
0.00248542
0.00248544
0.00248546
0.00248548
0.0024855
0.00248552
0.00248554
0.00248555
0.00248557
0.00248559
0.0024856
0.00248562
0.00248564
0.00248565
0.00248567
0.00248568
0.00248569
0.00248571
0.00248572
0.00248574
0.00248575
0.00248576
0.00248577
0.00248579
0.0024858
0.00248581
0.00248582
0.00248583
0.00248584
0.00248585
0.00248586
0.00248587
0.00248588
0.00248589
0.0024859
0.00248591
0.00248591
0.00248592
0.00248593
0.00248594
0.00248595
0.00248595
0.00248596
0.00248597
0.00248597
0.00248598
0.00248599
0.00248599
0.002486
0.00248601
0.00248601
0.00248602
0.00248602
0.00248603
0.00248603
0.00248604
0.00248604
0.00248605
0.00248605
0.00248606
0.00248606
0.00248606
0.00248607
0.00248607
0.00248608
0.00248608
0.00248608
0.00248609
0.00248609
0.00248609
0.0024861
0.0024861
0.0024861
0.00248611
0.00248611
0.00248611
0.00248611
0.00248612
0.00248612
0.00248612
0.00248612
0.00248613
0.00248613
0.00248613
0.00248613
0.00248614
0.00248614
0.00248614
0.00248614
0.00248614
0.00248614
0.00248615
0.00248615
0.00248615
0.00248615
0.00248615
0.00248615
0.00248616
0.00248616
0.00248616
0.00248616
0.00248616
0.00248616
0.00248616
0.00248616
0.00248617
0.00248617
0.00248617
0.00248617
0.00248617
0.00248617
0.00248617
0.00248617
0.00248617
0.00248617
0.00248618
0.00248618
0.00248618
0.00248618
0.00248618
0.00248618
0.00248618
0.00248618
0.00248618
0.00248618
0.00248618
0.00248618
0.00248618
0.00248618
0.0021015
0.00210148
0.00210147
0.00210146
0.00210145
0.00210145
0.00210145
0.00210145
0.00210145
0.00210146
0.00210147
0.00210148
0.00210149
0.00210151
0.00210152
0.00210154
0.00210156
0.00210158
0.0021016
0.00210162
0.00210164
0.00210166
0.00210168
0.0021017
0.00210172
0.00210175
0.00210177
0.00210179
0.00210181
0.00210184
0.00210186
0.00210188
0.00210191
0.00210193
0.00210195
0.00210197
0.00210199
0.00210202
0.00210204
0.00210206
0.00210208
0.0021021
0.00210212
0.00210214
0.00210216
0.00210218
0.0021022
0.00210222
0.00210223
0.00210225
0.00210227
0.00210229
0.0021023
0.00210232
0.00210234
0.00210235
0.00210237
0.00210238
0.0021024
0.00210241
0.00210243
0.00210244
0.00210246
0.00210247
0.00210248
0.00210249
0.00210251
0.00210252
0.00210253
0.00210254
0.00210255
0.00210256
0.00210257
0.00210258
0.00210259
0.0021026
0.00210261
0.00210262
0.00210263
0.00210264
0.00210265
0.00210266
0.00210267
0.00210267
0.00210268
0.00210269
0.0021027
0.0021027
0.00210271
0.00210272
0.00210272
0.00210273
0.00210274
0.00210274
0.00210275
0.00210275
0.00210276
0.00210276
0.00210277
0.00210277
0.00210278
0.00210278
0.00210279
0.00210279
0.0021028
0.0021028
0.00210281
0.00210281
0.00210281
0.00210282
0.00210282
0.00210283
0.00210283
0.00210283
0.00210284
0.00210284
0.00210284
0.00210284
0.00210285
0.00210285
0.00210285
0.00210286
0.00210286
0.00210286
0.00210286
0.00210287
0.00210287
0.00210287
0.00210287
0.00210287
0.00210288
0.00210288
0.00210288
0.00210288
0.00210288
0.00210289
0.00210289
0.00210289
0.00210289
0.00210289
0.00210289
0.0021029
0.0021029
0.0021029
0.0021029
0.0021029
0.0021029
0.0021029
0.0021029
0.00210291
0.00210291
0.00210291
0.00210291
0.00210291
0.00210291
0.00210291
0.00210291
0.00210291
0.00210291
0.00210292
0.00210292
0.00210292
0.00210292
0.00210292
0.00210292
0.00210292
0.00210292
0.00210292
0.00210292
0.00210292
0.00210292
0.00210292
0.00210292
0.00210292
0.00210293
0.00177429
0.00177427
0.00177425
0.00177424
0.00177423
0.00177422
0.00177422
0.00177421
0.00177422
0.00177422
0.00177423
0.00177423
0.00177424
0.00177425
0.00177427
0.00177428
0.00177429
0.00177431
0.00177432
0.00177434
0.00177436
0.00177438
0.0017744
0.00177442
0.00177444
0.00177446
0.00177448
0.0017745
0.00177452
0.00177454
0.00177456
0.00177458
0.0017746
0.00177462
0.00177464
0.00177466
0.00177468
0.0017747
0.00177472
0.00177474
0.00177476
0.00177478
0.00177479
0.00177481
0.00177483
0.00177485
0.00177487
0.00177488
0.0017749
0.00177492
0.00177493
0.00177495
0.00177496
0.00177498
0.00177499
0.00177501
0.00177502
0.00177504
0.00177505
0.00177507
0.00177508
0.00177509
0.0017751
0.00177512
0.00177513
0.00177514
0.00177515
0.00177516
0.00177517
0.00177518
0.00177519
0.0017752
0.00177521
0.00177522
0.00177523
0.00177524
0.00177525
0.00177526
0.00177527
0.00177528
0.00177529
0.00177529
0.0017753
0.00177531
0.00177532
0.00177532
0.00177533
0.00177534
0.00177534
0.00177535
0.00177535
0.00177536
0.00177537
0.00177537
0.00177538
0.00177538
0.00177539
0.00177539
0.0017754
0.0017754
0.00177541
0.00177541
0.00177542
0.00177542
0.00177542
0.00177543
0.00177543
0.00177544
0.00177544
0.00177544
0.00177545
0.00177545
0.00177545
0.00177546
0.00177546
0.00177546
0.00177546
0.00177547
0.00177547
0.00177547
0.00177548
0.00177548
0.00177548
0.00177548
0.00177549
0.00177549
0.00177549
0.00177549
0.00177549
0.0017755
0.0017755
0.0017755
0.0017755
0.0017755
0.0017755
0.00177551
0.00177551
0.00177551
0.00177551
0.00177551
0.00177551
0.00177552
0.00177552
0.00177552
0.00177552
0.00177552
0.00177552
0.00177552
0.00177552
0.00177552
0.00177553
0.00177553
0.00177553
0.00177553
0.00177553
0.00177553
0.00177553
0.00177553
0.00177553
0.00177553
0.00177553
0.00177554
0.00177554
0.00177554
0.00177554
0.00177554
0.00177554
0.00177554
0.00177554
0.00177554
0.00177554
0.00177554
0.00177554
0.00177554
0.00177554
0.00149481
0.00149479
0.00149477
0.00149475
0.00149474
0.00149473
0.00149472
0.00149472
0.00149472
0.00149472
0.00149472
0.00149473
0.00149474
0.00149474
0.00149475
0.00149476
0.00149478
0.00149479
0.0014948
0.00149482
0.00149483
0.00149485
0.00149486
0.00149488
0.0014949
0.00149491
0.00149493
0.00149495
0.00149497
0.00149499
0.001495
0.00149502
0.00149504
0.00149506
0.00149508
0.00149509
0.00149511
0.00149513
0.00149515
0.00149517
0.00149518
0.0014952
0.00149522
0.00149523
0.00149525
0.00149526
0.00149528
0.0014953
0.00149531
0.00149533
0.00149534
0.00149536
0.00149537
0.00149538
0.0014954
0.00149541
0.00149542
0.00149544
0.00149545
0.00149546
0.00149547
0.00149549
0.0014955
0.00149551
0.00149552
0.00149553
0.00149554
0.00149555
0.00149556
0.00149557
0.00149558
0.00149559
0.0014956
0.00149561
0.00149562
0.00149562
0.00149563
0.00149564
0.00149565
0.00149565
0.00149566
0.00149567
0.00149568
0.00149568
0.00149569
0.0014957
0.0014957
0.00149571
0.00149571
0.00149572
0.00149573
0.00149573
0.00149574
0.00149574
0.00149575
0.00149575
0.00149576
0.00149576
0.00149576
0.00149577
0.00149577
0.00149578
0.00149578
0.00149579
0.00149579
0.00149579
0.0014958
0.0014958
0.0014958
0.00149581
0.00149581
0.00149581
0.00149582
0.00149582
0.00149582
0.00149582
0.00149583
0.00149583
0.00149583
0.00149583
0.00149584
0.00149584
0.00149584
0.00149584
0.00149585
0.00149585
0.00149585
0.00149585
0.00149585
0.00149585
0.00149586
0.00149586
0.00149586
0.00149586
0.00149586
0.00149586
0.00149587
0.00149587
0.00149587
0.00149587
0.00149587
0.00149587
0.00149587
0.00149588
0.00149588
0.00149588
0.00149588
0.00149588
0.00149588
0.00149588
0.00149588
0.00149588
0.00149588
0.00149589
0.00149589
0.00149589
0.00149589
0.00149589
0.00149589
0.00149589
0.00149589
0.00149589
0.00149589
0.00149589
0.00149589
0.00149589
0.00149589
0.0014959
0.0014959
0.0014959
0.0014959
0.0014959
0.0014959
0.0014959
0.0014959
0.0012561
0.00125608
0.00125606
0.00125604
0.00125603
0.00125602
0.00125601
0.001256
0.001256
0.001256
0.001256
0.001256
0.00125601
0.00125601
0.00125602
0.00125603
0.00125604
0.00125605
0.00125606
0.00125607
0.00125609
0.0012561
0.00125611
0.00125613
0.00125614
0.00125616
0.00125617
0.00125619
0.0012562
0.00125622
0.00125624
0.00125625
0.00125627
0.00125628
0.0012563
0.00125632
0.00125633
0.00125635
0.00125636
0.00125638
0.00125639
0.00125641
0.00125642
0.00125644
0.00125645
0.00125647
0.00125648
0.00125649
0.00125651
0.00125652
0.00125653
0.00125655
0.00125656
0.00125657
0.00125658
0.0012566
0.00125661
0.00125662
0.00125663
0.00125664
0.00125665
0.00125666
0.00125667
0.00125668
0.00125669
0.0012567
0.00125671
0.00125672
0.00125673
0.00125674
0.00125675
0.00125676
0.00125676
0.00125677
0.00125678
0.00125679
0.00125679
0.0012568
0.00125681
0.00125682
0.00125682
0.00125683
0.00125683
0.00125684
0.00125685
0.00125685
0.00125686
0.00125686
0.00125687
0.00125687
0.00125688
0.00125688
0.00125689
0.00125689
0.0012569
0.0012569
0.00125691
0.00125691
0.00125691
0.00125692
0.00125692
0.00125693
0.00125693
0.00125693
0.00125694
0.00125694
0.00125694
0.00125695
0.00125695
0.00125695
0.00125695
0.00125696
0.00125696
0.00125696
0.00125696
0.00125697
0.00125697
0.00125697
0.00125697
0.00125698
0.00125698
0.00125698
0.00125698
0.00125698
0.00125699
0.00125699
0.00125699
0.00125699
0.00125699
0.001257
0.001257
0.001257
0.001257
0.001257
0.001257
0.001257
0.00125701
0.00125701
0.00125701
0.00125701
0.00125701
0.00125701
0.00125701
0.00125701
0.00125701
0.00125702
0.00125702
0.00125702
0.00125702
0.00125702
0.00125702
0.00125702
0.00125702
0.00125702
0.00125702
0.00125702
0.00125702
0.00125703
0.00125703
0.00125703
0.00125703
0.00125703
0.00125703
0.00125703
0.00125703
0.00125703
0.00125703
0.00125703
0.00125703
0.00125703
0.00125703
0.00125703
0.00125703
0.00125703
0.00125703
0.00105221
0.00105219
0.00105217
0.00105215
0.00105214
0.00105213
0.00105212
0.00105212
0.00105211
0.00105211
0.00105211
0.00105211
0.00105211
0.00105212
0.00105212
0.00105213
0.00105214
0.00105215
0.00105215
0.00105216
0.00105218
0.00105219
0.0010522
0.00105221
0.00105222
0.00105224
0.00105225
0.00105226
0.00105228
0.00105229
0.0010523
0.00105232
0.00105233
0.00105234
0.00105236
0.00105237
0.00105239
0.0010524
0.00105241
0.00105243
0.00105244
0.00105245
0.00105247
0.00105248
0.00105249
0.0010525
0.00105252
0.00105253
0.00105254
0.00105255
0.00105256
0.00105258
0.00105259
0.0010526
0.00105261
0.00105262
0.00105263
0.00105264
0.00105265
0.00105266
0.00105267
0.00105268
0.00105269
0.0010527
0.0010527
0.00105271
0.00105272
0.00105273
0.00105274
0.00105274
0.00105275
0.00105276
0.00105277
0.00105277
0.00105278
0.00105279
0.00105279
0.0010528
0.00105281
0.00105281
0.00105282
0.00105282
0.00105283
0.00105283
0.00105284
0.00105284
0.00105285
0.00105285
0.00105286
0.00105286
0.00105287
0.00105287
0.00105288
0.00105288
0.00105288
0.00105289
0.00105289
0.0010529
0.0010529
0.0010529
0.00105291
0.00105291
0.00105291
0.00105292
0.00105292
0.00105292
0.00105292
0.00105293
0.00105293
0.00105293
0.00105294
0.00105294
0.00105294
0.00105294
0.00105294
0.00105295
0.00105295
0.00105295
0.00105295
0.00105295
0.00105296
0.00105296
0.00105296
0.00105296
0.00105296
0.00105297
0.00105297
0.00105297
0.00105297
0.00105297
0.00105297
0.00105297
0.00105298
0.00105298
0.00105298
0.00105298
0.00105298
0.00105298
0.00105298
0.00105298
0.00105298
0.00105299
0.00105299
0.00105299
0.00105299
0.00105299
0.00105299
0.00105299
0.00105299
0.00105299
0.00105299
0.00105299
0.00105299
0.001053
0.001053
0.001053
0.001053
0.001053
0.001053
0.001053
0.001053
0.001053
0.001053
0.001053
0.001053
0.001053
0.001053
0.001053
0.001053
0.001053
0.001053
0.00105301
0.00105301
0.00105301
0.00105301
0.000878067
0.000878045
0.000878026
0.000878011
0.000877997
0.000877987
0.000877978
0.000877972
0.000877967
0.000877965
0.000877963
0.000877964
0.000877966
0.000877969
0.000877973
0.000877978
0.000877984
0.000877991
0.000877998
0.000878007
0.000878016
0.000878025
0.000878035
0.000878045
0.000878056
0.000878066
0.000878078
0.000878089
0.0008781
0.000878112
0.000878124
0.000878136
0.000878148
0.00087816
0.000878171
0.000878183
0.000878195
0.000878207
0.000878219
0.00087823
0.000878242
0.000878253
0.000878265
0.000878276
0.000878287
0.000878298
0.000878308
0.000878319
0.000878329
0.00087834
0.00087835
0.000878359
0.000878369
0.000878379
0.000878388
0.000878397
0.000878406
0.000878415
0.000878424
0.000878432
0.00087844
0.000878448
0.000878456
0.000878464
0.000878472
0.000878479
0.000878486
0.000878493
0.0008785
0.000878507
0.000878513
0.00087852
0.000878526
0.000878532
0.000878538
0.000878544
0.000878549
0.000878555
0.00087856
0.000878565
0.00087857
0.000878575
0.00087858
0.000878585
0.000878589
0.000878594
0.000878598
0.000878602
0.000878607
0.000878611
0.000878614
0.000878618
0.000878622
0.000878625
0.000878629
0.000878632
0.000878636
0.000878639
0.000878642
0.000878645
0.000878648
0.000878651
0.000878653
0.000878656
0.000878659
0.000878661
0.000878664
0.000878666
0.000878668
0.000878671
0.000878673
0.000878675
0.000878677
0.000878679
0.000878681
0.000878683
0.000878685
0.000878687
0.000878688
0.00087869
0.000878692
0.000878693
0.000878695
0.000878696
0.000878698
0.000878699
0.000878701
0.000878702
0.000878703
0.000878705
0.000878706
0.000878707
0.000878708
0.000878709
0.00087871
0.000878711
0.000878713
0.000878714
0.000878714
0.000878715
0.000878716
0.000878717
0.000878718
0.000878719
0.00087872
0.000878721
0.000878721
0.000878722
0.000878723
0.000878723
0.000878724
0.000878725
0.000878725
0.000878726
0.000878727
0.000878727
0.000878728
0.000878728
0.000878729
0.000878729
0.00087873
0.00087873
0.000878731
0.000878731
0.000878732
0.000878732
0.000878733
0.000878733
0.000878733
0.000878734
0.000878734
0.000878734
0.000878735
0.000878735
0.000878735
0.000729323
0.000729303
0.000729286
0.000729271
0.000729259
0.000729249
0.000729241
0.000729234
0.00072923
0.000729227
0.000729225
0.000729225
0.000729226
0.000729228
0.000729231
0.000729235
0.00072924
0.000729245
0.000729252
0.000729258
0.000729266
0.000729273
0.000729282
0.00072929
0.000729299
0.000729308
0.000729318
0.000729327
0.000729337
0.000729347
0.000729357
0.000729367
0.000729377
0.000729387
0.000729397
0.000729408
0.000729418
0.000729428
0.000729438
0.000729448
0.000729458
0.000729467
0.000729477
0.000729487
0.000729496
0.000729505
0.000729515
0.000729524
0.000729533
0.000729541
0.00072955
0.000729558
0.000729567
0.000729575
0.000729583
0.000729591
0.000729599
0.000729606
0.000729614
0.000729621
0.000729628
0.000729635
0.000729642
0.000729648
0.000729655
0.000729661
0.000729667
0.000729673
0.000729679
0.000729685
0.000729691
0.000729696
0.000729702
0.000729707
0.000729712
0.000729717
0.000729722
0.000729727
0.000729731
0.000729736
0.00072974
0.000729744
0.000729748
0.000729753
0.000729756
0.00072976
0.000729764
0.000729768
0.000729771
0.000729775
0.000729778
0.000729781
0.000729784
0.000729788
0.000729791
0.000729793
0.000729796
0.000729799
0.000729802
0.000729804
0.000729807
0.000729809
0.000729812
0.000729814
0.000729816
0.000729818
0.000729821
0.000729823
0.000729825
0.000729827
0.000729829
0.00072983
0.000729832
0.000729834
0.000729836
0.000729837
0.000729839
0.00072984
0.000729842
0.000729843
0.000729845
0.000729846
0.000729848
0.000729849
0.00072985
0.000729851
0.000729853
0.000729854
0.000729855
0.000729856
0.000729857
0.000729858
0.000729859
0.00072986
0.000729861
0.000729862
0.000729863
0.000729864
0.000729864
0.000729865
0.000729866
0.000729867
0.000729868
0.000729868
0.000729869
0.00072987
0.00072987
0.000729871
0.000729872
0.000729872
0.000729873
0.000729873
0.000729874
0.000729874
0.000729875
0.000729875
0.000729876
0.000729876
0.000729877
0.000729877
0.000729878
0.000729878
0.000729879
0.000729879
0.000729879
0.00072988
0.00072988
0.00072988
0.000729881
0.000729881
0.000729881
0.000729882
0.000729882
0.000729882
0.000729883
0.000602276
0.000602259
0.000602243
0.00060223
0.000602219
0.000602209
0.000602202
0.000602196
0.000602192
0.000602189
0.000602187
0.000602186
0.000602187
0.000602188
0.00060219
0.000602194
0.000602197
0.000602202
0.000602207
0.000602212
0.000602218
0.000602225
0.000602231
0.000602239
0.000602246
0.000602254
0.000602262
0.00060227
0.000602278
0.000602286
0.000602294
0.000602303
0.000602311
0.00060232
0.000602329
0.000602337
0.000602346
0.000602354
0.000602363
0.000602371
0.000602379
0.000602388
0.000602396
0.000602404
0.000602412
0.00060242
0.000602428
0.000602435
0.000602443
0.00060245
0.000602458
0.000602465
0.000602472
0.000602479
0.000602486
0.000602492
0.000602499
0.000602505
0.000602512
0.000602518
0.000602524
0.00060253
0.000602536
0.000602541
0.000602547
0.000602552
0.000602558
0.000602563
0.000602568
0.000602573
0.000602578
0.000602582
0.000602587
0.000602591
0.000602596
0.0006026
0.000602604
0.000602608
0.000602612
0.000602616
0.00060262
0.000602623
0.000602627
0.00060263
0.000602634
0.000602637
0.00060264
0.000602643
0.000602646
0.000602649
0.000602652
0.000602655
0.000602657
0.00060266
0.000602663
0.000602665
0.000602667
0.00060267
0.000602672
0.000602674
0.000602676
0.000602679
0.000602681
0.000602683
0.000602685
0.000602686
0.000602688
0.00060269
0.000602692
0.000602693
0.000602695
0.000602697
0.000602698
0.0006027
0.000602701
0.000602702
0.000602704
0.000602705
0.000602706
0.000602708
0.000602709
0.00060271
0.000602711
0.000602712
0.000602713
0.000602714
0.000602715
0.000602716
0.000602717
0.000602718
0.000602719
0.00060272
0.000602721
0.000602722
0.000602723
0.000602723
0.000602724
0.000602725
0.000602726
0.000602726
0.000602727
0.000602728
0.000602728
0.000602729
0.000602729
0.00060273
0.000602731
0.000602731
0.000602732
0.000602732
0.000602733
0.000602733
0.000602734
0.000602734
0.000602735
0.000602735
0.000602735
0.000602736
0.000602736
0.000602737
0.000602737
0.000602737
0.000602738
0.000602738
0.000602738
0.000602739
0.000602739
0.000602739
0.00060274
0.00060274
0.00060274
0.00060274
0.000602741
0.000602741
0.000602741
0.000493762
0.000493746
0.000493733
0.000493721
0.000493711
0.000493703
0.000493696
0.000493691
0.000493687
0.000493684
0.000493682
0.000493682
0.000493682
0.000493683
0.000493684
0.000493687
0.00049369
0.000493693
0.000493697
0.000493702
0.000493707
0.000493712
0.000493717
0.000493723
0.000493729
0.000493736
0.000493742
0.000493749
0.000493756
0.000493763
0.00049377
0.000493777
0.000493784
0.000493791
0.000493798
0.000493805
0.000493812
0.000493819
0.000493826
0.000493834
0.00049384
0.000493847
0.000493854
0.000493861
0.000493868
0.000493874
0.000493881
0.000493887
0.000493894
0.0004939
0.000493906
0.000493912
0.000493918
0.000493924
0.00049393
0.000493935
0.000493941
0.000493946
0.000493952
0.000493957
0.000493962
0.000493967
0.000493972
0.000493976
0.000493981
0.000493986
0.00049399
0.000493994
0.000493999
0.000494003
0.000494007
0.000494011
0.000494015
0.000494018
0.000494022
0.000494026
0.000494029
0.000494033
0.000494036
0.000494039
0.000494042
0.000494045
0.000494048
0.000494051
0.000494054
0.000494057
0.000494059
0.000494062
0.000494065
0.000494067
0.000494069
0.000494072
0.000494074
0.000494076
0.000494078
0.000494081
0.000494083
0.000494085
0.000494086
0.000494088
0.00049409
0.000494092
0.000494094
0.000494095
0.000494097
0.000494099
0.0004941
0.000494102
0.000494103
0.000494104
0.000494106
0.000494107
0.000494108
0.00049411
0.000494111
0.000494112
0.000494113
0.000494114
0.000494115
0.000494116
0.000494117
0.000494118
0.000494119
0.00049412
0.000494121
0.000494122
0.000494123
0.000494124
0.000494125
0.000494125
0.000494126
0.000494127
0.000494128
0.000494128
0.000494129
0.00049413
0.00049413
0.000494131
0.000494132
0.000494132
0.000494133
0.000494133
0.000494134
0.000494134
0.000494135
0.000494135
0.000494136
0.000494136
0.000494137
0.000494137
0.000494138
0.000494138
0.000494138
0.000494139
0.000494139
0.000494139
0.00049414
0.00049414
0.00049414
0.000494141
0.000494141
0.000494141
0.000494142
0.000494142
0.000494142
0.000494143
0.000494143
0.000494143
0.000494143
0.000494144
0.000494144
0.000494144
0.000494144
0.000494144
0.000494145
0.000401077
0.000401063
0.000401052
0.000401042
0.000401033
0.000401026
0.00040102
0.000401015
0.000401012
0.000401009
0.000401007
0.000401007
0.000401006
0.000401007
0.000401008
0.00040101
0.000401012
0.000401015
0.000401018
0.000401022
0.000401026
0.00040103
0.000401035
0.00040104
0.000401045
0.00040105
0.000401055
0.000401061
0.000401066
0.000401072
0.000401077
0.000401083
0.000401089
0.000401095
0.000401101
0.000401107
0.000401113
0.000401119
0.000401124
0.00040113
0.000401136
0.000401142
0.000401147
0.000401153
0.000401159
0.000401164
0.00040117
0.000401175
0.00040118
0.000401185
0.00040119
0.000401195
0.0004012
0.000401205
0.00040121
0.000401215
0.000401219
0.000401224
0.000401228
0.000401232
0.000401237
0.000401241
0.000401245
0.000401249
0.000401253
0.000401256
0.00040126
0.000401264
0.000401267
0.000401271
0.000401274
0.000401277
0.00040128
0.000401284
0.000401287
0.00040129
0.000401292
0.000401295
0.000401298
0.000401301
0.000401303
0.000401306
0.000401308
0.000401311
0.000401313
0.000401315
0.000401318
0.00040132
0.000401322
0.000401324
0.000401326
0.000401328
0.00040133
0.000401332
0.000401333
0.000401335
0.000401337
0.000401338
0.00040134
0.000401342
0.000401343
0.000401345
0.000401346
0.000401347
0.000401349
0.00040135
0.000401351
0.000401353
0.000401354
0.000401355
0.000401356
0.000401357
0.000401358
0.000401359
0.00040136
0.000401361
0.000401362
0.000401363
0.000401364
0.000401365
0.000401366
0.000401367
0.000401367
0.000401368
0.000401369
0.00040137
0.00040137
0.000401371
0.000401372
0.000401372
0.000401373
0.000401374
0.000401374
0.000401375
0.000401375
0.000401376
0.000401377
0.000401377
0.000401378
0.000401378
0.000401378
0.000401379
0.000401379
0.00040138
0.00040138
0.000401381
0.000401381
0.000401381
0.000401382
0.000401382
0.000401383
0.000401383
0.000401383
0.000401383
0.000401384
0.000401384
0.000401384
0.000401385
0.000401385
0.000401385
0.000401385
0.000401386
0.000401386
0.000401386
0.000401386
0.000401387
0.000401387
0.000401387
0.000401387
0.000401387
0.000401388
0.000401388
0.000401388
0.000401388
0.000401388
0.000321911
0.0003219
0.00032189
0.000321882
0.000321875
0.000321869
0.000321864
0.00032186
0.000321856
0.000321854
0.000321853
0.000321852
0.000321852
0.000321852
0.000321853
0.000321854
0.000321856
0.000321858
0.000321861
0.000321864
0.000321867
0.00032187
0.000321874
0.000321878
0.000321882
0.000321886
0.00032189
0.000321894
0.000321899
0.000321904
0.000321908
0.000321913
0.000321918
0.000321922
0.000321927
0.000321932
0.000321937
0.000321942
0.000321946
0.000321951
0.000321956
0.00032196
0.000321965
0.00032197
0.000321974
0.000321979
0.000321983
0.000321987
0.000321992
0.000321996
0.000322
0.000322004
0.000322008
0.000322012
0.000322016
0.00032202
0.000322024
0.000322027
0.000322031
0.000322034
0.000322038
0.000322041
0.000322045
0.000322048
0.000322051
0.000322054
0.000322057
0.00032206
0.000322063
0.000322066
0.000322068
0.000322071
0.000322074
0.000322076
0.000322079
0.000322081
0.000322083
0.000322086
0.000322088
0.00032209
0.000322092
0.000322094
0.000322096
0.000322098
0.0003221
0.000322102
0.000322104
0.000322106
0.000322108
0.000322109
0.000322111
0.000322112
0.000322114
0.000322116
0.000322117
0.000322118
0.00032212
0.000322121
0.000322122
0.000322124
0.000322125
0.000322126
0.000322127
0.000322128
0.00032213
0.000322131
0.000322132
0.000322133
0.000322134
0.000322135
0.000322136
0.000322136
0.000322137
0.000322138
0.000322139
0.00032214
0.000322141
0.000322141
0.000322142
0.000322143
0.000322144
0.000322144
0.000322145
0.000322146
0.000322146
0.000322147
0.000322147
0.000322148
0.000322148
0.000322149
0.000322149
0.00032215
0.00032215
0.000322151
0.000322151
0.000322152
0.000322152
0.000322153
0.000322153
0.000322154
0.000322154
0.000322154
0.000322155
0.000322155
0.000322155
0.000322156
0.000322156
0.000322156
0.000322157
0.000322157
0.000322157
0.000322157
0.000322158
0.000322158
0.000322158
0.000322159
0.000322159
0.000322159
0.000322159
0.000322159
0.00032216
0.00032216
0.00032216
0.00032216
0.00032216
0.000322161
0.000322161
0.000322161
0.000322161
0.000322161
0.000322161
0.000322162
0.000322162
0.000322162
0.000322162
0.000254294
0.000254284
0.000254276
0.000254269
0.000254264
0.000254259
0.000254254
0.000254251
0.000254248
0.000254246
0.000254245
0.000254244
0.000254244
0.000254244
0.000254245
0.000254246
0.000254247
0.000254249
0.000254251
0.000254253
0.000254256
0.000254258
0.000254261
0.000254264
0.000254268
0.000254271
0.000254274
0.000254278
0.000254281
0.000254285
0.000254289
0.000254292
0.000254296
0.0002543
0.000254304
0.000254308
0.000254312
0.000254315
0.000254319
0.000254323
0.000254327
0.00025433
0.000254334
0.000254338
0.000254341
0.000254345
0.000254349
0.000254352
0.000254355
0.000254359
0.000254362
0.000254365
0.000254369
0.000254372
0.000254375
0.000254378
0.000254381
0.000254384
0.000254387
0.00025439
0.000254392
0.000254395
0.000254398
0.0002544
0.000254403
0.000254405
0.000254408
0.00025441
0.000254412
0.000254415
0.000254417
0.000254419
0.000254421
0.000254423
0.000254425
0.000254427
0.000254429
0.000254431
0.000254433
0.000254434
0.000254436
0.000254438
0.000254439
0.000254441
0.000254443
0.000254444
0.000254446
0.000254447
0.000254448
0.00025445
0.000254451
0.000254452
0.000254454
0.000254455
0.000254456
0.000254457
0.000254458
0.000254459
0.00025446
0.000254461
0.000254462
0.000254463
0.000254464
0.000254465
0.000254466
0.000254467
0.000254468
0.000254469
0.000254469
0.00025447
0.000254471
0.000254472
0.000254472
0.000254473
0.000254474
0.000254474
0.000254475
0.000254476
0.000254476
0.000254477
0.000254477
0.000254478
0.000254478
0.000254479
0.000254479
0.00025448
0.00025448
0.000254481
0.000254481
0.000254482
0.000254482
0.000254482
0.000254483
0.000254483
0.000254484
0.000254484
0.000254484
0.000254485
0.000254485
0.000254485
0.000254486
0.000254486
0.000254486
0.000254486
0.000254487
0.000254487
0.000254487
0.000254488
0.000254488
0.000254488
0.000254488
0.000254488
0.000254489
0.000254489
0.000254489
0.000254489
0.000254489
0.00025449
0.00025449
0.00025449
0.00025449
0.00025449
0.00025449
0.000254491
0.000254491
0.000254491
0.000254491
0.000254491
0.000254491
0.000254491
0.000254492
0.000254492
0.000254492
0.000254492
0.000254492
0.000196539
0.000196532
0.000196526
0.00019652
0.000196515
0.000196511
0.000196508
0.000196505
0.000196503
0.000196502
0.0001965
0.0001965
0.0001965
0.0001965
0.0001965
0.000196501
0.000196502
0.000196503
0.000196505
0.000196506
0.000196508
0.00019651
0.000196513
0.000196515
0.000196517
0.00019652
0.000196523
0.000196525
0.000196528
0.000196531
0.000196534
0.000196537
0.00019654
0.000196543
0.000196546
0.000196549
0.000196552
0.000196555
0.000196558
0.000196561
0.000196563
0.000196566
0.000196569
0.000196572
0.000196575
0.000196578
0.000196581
0.000196583
0.000196586
0.000196589
0.000196591
0.000196594
0.000196596
0.000196599
0.000196601
0.000196604
0.000196606
0.000196608
0.000196611
0.000196613
0.000196615
0.000196617
0.000196619
0.000196621
0.000196623
0.000196625
0.000196627
0.000196629
0.000196631
0.000196632
0.000196634
0.000196636
0.000196637
0.000196639
0.000196641
0.000196642
0.000196644
0.000196645
0.000196646
0.000196648
0.000196649
0.00019665
0.000196652
0.000196653
0.000196654
0.000196655
0.000196656
0.000196658
0.000196659
0.00019666
0.000196661
0.000196662
0.000196663
0.000196664
0.000196665
0.000196665
0.000196666
0.000196667
0.000196668
0.000196669
0.00019667
0.00019667
0.000196671
0.000196672
0.000196673
0.000196673
0.000196674
0.000196674