/*--------------------------------*- C++ -*----------------------------------*\
| =========                 |                                                 |
| \\      /  F ield         | OpenFOAM: The Open Source CFD Toolbox           |
|  \\    /   O peration     | Version:  2.1.1                                 |
|   \\  /    A nd           | Web:      www.OpenFOAM.org                      |
|    \\/     M anipulation  |                                                 |
\*---------------------------------------------------------------------------*/
FoamFile
{
    version     2.0;
    format      ascii;
    class       volScalarField;
    location    "0";
    object      yPlus;
}
// * * * * * * * * * * * * * * * * * * * * * * * * * * * * * * * * * * * * * //

dimensions      [0 0 0 0 0 0 0];

internalField   uniform 0;

boundaryField
{
    inlet
    {
        type            calculated;
        value           uniform 0;
    }
    outlet
    {
        type            calculated;
        value           uniform 0;
    }
    wall
    {
        type            calculated;
        value           nonuniform List<scalar> 
1300
(
313.872
313.858
313.844
313.831
313.818
313.806
313.794
313.782
313.771
313.76
313.749
313.739
313.729
313.719
313.709
313.7
313.691
313.683
313.674
313.666
313.658
313.651
313.643
313.636
313.629
313.622
313.616
313.609
313.603
313.597
313.591
313.586
313.58
313.575
313.57
313.565
313.56
313.555
313.551
313.546
313.542
313.538
313.534
313.53
313.526
313.523
313.519
313.516
313.512
313.509
313.506
313.503
313.5
313.497
313.494
313.491
313.489
313.486
313.484
313.481
313.479
313.477
313.475
313.472
313.47
313.468
313.466
313.465
313.463
313.461
313.459
313.458
313.456
313.454
313.453
313.451
313.45
313.449
313.447
313.446
313.445
313.443
313.442
313.441
313.44
313.439
313.438
313.437
313.436
313.435
313.434
313.433
313.432
313.431
313.43
313.43
313.429
313.428
313.427
313.427
313.426
313.425
313.425
313.424
313.423
313.423
313.422
313.422
313.421
313.421
313.42
313.42
313.419
313.419
313.418
313.418
313.417
313.417
313.417
313.416
313.416
313.415
313.415
313.415
313.414
313.414
313.414
313.413
313.413
313.413
313.413
313.412
313.412
313.412
313.412
313.411
313.411
313.411
313.411
313.41
313.41
313.41
313.41
313.41
313.41
313.409
313.409
313.409
313.409
313.409
313.409
313.408
313.408
313.408
313.408
313.408
313.408
313.408
313.407
313.407
313.407
313.407
313.407
313.407
313.407
313.407
313.407
313.407
313.406
313.406
313.406
313.406
313.406
313.406
313.406
370.583
370.583
370.583
370.583
370.583
370.583
370.583
370.583
370.583
370.583
370.582
370.582
370.582
370.582
370.582
370.582
370.582
370.582
370.582
370.582
370.582
370.582
370.581
370.581
370.581
370.581
370.581
370.581
370.581
370.581
370.581
370.581
370.58
370.58
370.58
370.58
370.58
370.58
370.58
370.579
370.579
370.579
370.579
370.578
370.578
370.578
370.578
370.578
370.578
370.577
370.577
370.577
370.576
370.576
370.576
370.576
370.575
370.575
370.575
370.574
370.574
370.573
370.573
370.573
370.572
370.572
370.571
370.571
370.57
370.57
370.569
370.569
370.568
370.568
370.567
370.567
370.566
370.565
370.565
370.564
370.563
370.562
370.561
370.561
370.56
370.559
370.558
370.557
370.556
370.555
370.554
370.553
370.552
370.55
370.549
370.548
370.547
370.545
370.544
370.542
370.541
370.539
370.538
370.536
370.534
370.532
370.53
370.528
370.526
370.524
370.522
370.52
370.517
370.515
370.512
370.51
370.507
370.504
370.501
370.498
370.495
370.491
370.488
370.484
370.481
370.477
370.473
370.469
370.464
370.46
370.455
370.45
370.445
370.44
370.435
370.429
370.423
370.417
370.411
370.404
370.397
370.39
370.383
370.375
370.367
370.359
370.35
370.341
370.332
370.322
370.322
370.332
370.341
370.35
370.359
370.367
370.375
370.383
370.39
370.397
370.404
370.411
370.417
370.423
370.429
370.435
370.44
370.445
370.45
370.455
370.46
370.464
370.469
370.473
370.477
370.48
370.484
370.488
370.491
370.495
370.498
370.501
370.504
370.507
370.509
370.512
370.515
370.517
370.52
370.522
370.524
370.526
370.528
370.53
370.532
370.534
370.536
370.537
370.539
370.541
370.542
370.544
370.545
370.546
370.548
370.549
370.55
370.551
370.553
370.554
370.555
370.556
370.557
370.558
370.559
370.56
370.56
370.561
370.562
370.563
370.563
370.564
370.565
370.566
370.566
370.567
370.567
370.568
370.569
370.569
370.57
370.57
370.571
370.571
370.572
370.572
370.572
370.573
370.573
370.574
370.574
370.574
370.575
370.575
370.575
370.576
370.576
370.576
370.576
370.577
370.577
370.577
370.577
370.578
370.578
370.578
370.578
370.578
370.579
370.579
370.579
370.579
370.579
370.579
370.58
370.58
370.58
370.58
370.58
370.58
370.58
370.581
370.581
370.581
370.581
370.581
370.581
370.581
370.581
370.581
370.582
370.582
370.582
370.582
370.582
370.582
370.582
370.582
370.582
370.582
370.582
370.582
370.582
370.582
370.582
370.582
370.582
370.583
370.583
370.583
313.406
313.406
313.406
313.406
313.406
313.406
313.406
313.406
313.407
313.407
313.407
313.407
313.407
313.407
313.407
313.407
313.407
313.407
313.408
313.408
313.408
313.408
313.408
313.408
313.408
313.409
313.409
313.409
313.409
313.409
313.409
313.41
313.41
313.41
313.41
313.41
313.411
313.411
313.411
313.411
313.412
313.412
313.412
313.412
313.413
313.413
313.413
313.413
313.414
313.414
313.414
313.415
313.415
313.415
313.416
313.416
313.416
313.417
313.417
313.418
313.418
313.419
313.419
313.42
313.42
313.421
313.421
313.422
313.422
313.423
313.423
313.424
313.425
313.425
313.426
313.427
313.427
313.428
313.429
313.43
313.43
313.431
313.432
313.433
313.434
313.435
313.436
313.437
313.438
313.439
313.44
313.441
313.442
313.443
313.445
313.446
313.447
313.448
313.45
313.451
313.453
313.454
313.456
313.457
313.459
313.461
313.463
313.464
313.466
313.468
313.47
313.472
313.474
313.477
313.479
313.481
313.484
313.486
313.489
313.491
313.494
313.497
313.5
313.503
313.506
313.509
313.512
313.516
313.519
313.523
313.526
313.53
313.534
313.538
313.542
313.546
313.551
313.555
313.56
313.565
313.57
313.575
313.58
313.586
313.591
313.597
313.603
313.609
313.616
313.622
313.629
313.636
313.643
313.651
313.658
313.666
313.674
313.683
313.691
313.7
313.709
313.719
313.729
313.739
313.749
313.76
313.771
313.782
313.794
313.806
313.818
313.831
313.844
313.858
313.872
313.872
313.858
313.844
313.831
313.818
313.806
313.794
313.782
313.771
313.76
313.749
313.739
313.729
313.719
313.709
313.7
313.691
313.683
313.674
313.666
313.658
313.651
313.643
313.636
313.629
313.622
313.616
313.609
313.603
313.597
313.591
313.586
313.58
313.575
313.57
313.565
313.56
313.555
313.551
313.546
313.542
313.538
313.534
313.53
313.526
313.523
313.519
313.516
313.512
313.509
313.506
313.503
313.5
313.497
313.494
313.491
313.489
313.486
313.484
313.481
313.479
313.477
313.474
313.472
313.47
313.468
313.466
313.464
313.463
313.461
313.459
313.457
313.456
313.454
313.453
313.451
313.45
313.448
313.447
313.446
313.445
313.443
313.442
313.441
313.44
313.439
313.438
313.437
313.436
313.435
313.434
313.433
313.432
313.431
313.43
313.43
313.429
313.428
313.427
313.427
313.426
313.425
313.425
313.424
313.423
313.423
313.422
313.422
313.421
313.421
313.42
313.42
313.419
313.419
313.418
313.418
313.417
313.417
313.416
313.416
313.416
313.415
313.415
313.415
313.414
313.414
313.414
313.413
313.413
313.413
313.413
313.412
313.412
313.412
313.412
313.411
313.411
313.411
313.411
313.41
313.41
313.41
313.41
313.41
313.409
313.409
313.409
313.409
313.409
313.409
313.408
313.408
313.408
313.408
313.408
313.408
313.408
313.407
313.407
313.407
313.407
313.407
313.407
313.407
313.407
313.407
313.407
313.406
313.406
313.406
313.406
313.406
313.406
313.406
313.406
370.583
370.583
370.583
370.582
370.582
370.582
370.582
370.582
370.582
370.582
370.582
370.582
370.582
370.582
370.582
370.582
370.582
370.582
370.582
370.582
370.581
370.581
370.581
370.581
370.581
370.581
370.581
370.581
370.581
370.58
370.58
370.58
370.58
370.58
370.58
370.58
370.579
370.579
370.579
370.579
370.579
370.579
370.578
370.578
370.578
370.578
370.578
370.577
370.577
370.577
370.577
370.576
370.576
370.576
370.576
370.575
370.575
370.575
370.574
370.574
370.574
370.573
370.573
370.572
370.572
370.572
370.571
370.571
370.57
370.57
370.569
370.569
370.568
370.567
370.567
370.566
370.566
370.565
370.564
370.563
370.563
370.562
370.561
370.56
370.56
370.559
370.558
370.557
370.556
370.555
370.554
370.553
370.551
370.55
370.549
370.548
370.546
370.545
370.544
370.542
370.541
370.539
370.537
370.536
370.534
370.532
370.53
370.528
370.526
370.524
370.522
370.52
370.517
370.515
370.512
370.509
370.507
370.504
370.501
370.498
370.495
370.491
370.488
370.484
370.48
370.477
370.473
370.469
370.464
370.46
370.455
370.45
370.445
370.44
370.435
370.429
370.423
370.417
370.411
370.404
370.397
370.39
370.383
370.375
370.367
370.359
370.35
370.341
370.332
370.322
365.133
355.123
346.07
337.919
330.614
324.102
318.328
313.243
308.795
304.938
301.626
298.816
296.467
294.541
293.001
291.814
290.947
290.371
290.058
289.983
290.121
290.451
290.953
291.607
292.396
293.304
294.317
295.42
296.603
297.853
299.161
300.517
301.912
303.339
304.791
306.261
307.744
309.235
310.729
312.221
313.709
315.189
316.657
318.112
319.551
320.972
322.374
323.754
325.111
326.445
327.755
329.039
330.298
331.53
332.736
333.914
335.065
336.19
337.287
338.357
339.4
340.416
341.405
342.369
343.306
344.218
345.104
345.966
346.804
347.617
348.407
349.174
349.919
350.641
351.342
352.021
352.681
353.32
353.939
354.539
355.121
355.685
356.231
356.76
357.272
357.768
358.248
358.712
359.162
359.597
360.019
360.426
360.82
361.202
361.571
361.927
362.273
362.606
362.929
363.241
363.543
363.834
364.116
364.389
364.652
364.907
365.153
365.391
365.62
365.843
366.057
366.264
366.465
366.658
366.845
367.026
367.2
367.369
367.532
367.689
367.841
367.988
368.129
368.266
368.398
368.526
368.649
368.768
368.883
368.994
369.101
369.205
369.305
369.401
369.495
369.585
369.671
369.755
369.836
369.915
369.99
370.063
370.133
370.201
370.267
370.33
370.391
370.45
370.507
370.562
313.406
313.406
313.406
313.406
313.406
313.406
313.406
313.406
313.407
313.407
313.407
313.407
313.407
313.407
313.407
313.407
313.407
313.407
313.408
313.408
313.408
313.408
313.408
313.408
313.408
313.409
313.409
313.409
313.409
313.409
313.409
313.41
313.41
313.41
313.41
313.41
313.411
313.411
313.411
313.411
313.412
313.412
313.412
313.412
313.413
313.413
313.413
313.413
313.414
313.414
313.414
313.415
313.415
313.415
313.416
313.416
313.416
313.417
313.417
313.418
313.418
313.419
313.419
313.42
313.42
313.421
313.421
313.422
313.422
313.423
313.423
313.424
313.425
313.425
313.426
313.427
313.427
313.428
313.429
313.43
313.43
313.431
313.432
313.433
313.434
313.435
313.436
313.437
313.438
313.439
313.44
313.441
313.442
313.443
313.445
313.446
313.447
313.448
313.45
313.451
313.453
313.454
313.456
313.457
313.459
313.461
313.463
313.464
313.466
313.468
313.47
313.472
313.474
313.477
313.479
313.481
313.484
313.486
313.489
313.491
313.494
313.497
313.5
313.503
313.506
313.509
313.512
313.516
313.519
313.523
313.526
313.53
313.534
313.538
313.542
313.546
313.551
313.555
313.56
313.565
313.57
313.575
313.58
313.586
313.591
313.597
313.603
313.609
313.616
313.622
313.629
313.636
313.643
313.651
313.658
313.666
313.674
313.683
313.691
313.7
313.709
313.719
313.729
313.739
313.749
313.76
313.771
313.782
313.794
313.806
313.818
313.831
313.844
313.858
313.872
)
;
    }
    heatedWall
    {
        type            calculated;
        value           nonuniform List<scalar> 
680
(
370.514
370.513
370.504
370.49
370.474
370.457
370.44
370.424
370.409
370.395
370.382
370.371
370.361
370.353
370.345
370.338
370.333
370.328
370.323
370.32
370.353
370.353
370.353
370.353
370.353
370.353
370.353
370.353
370.353
370.354
370.354
370.354
370.354
370.354
370.354
370.354
370.354
370.354
370.355
370.355
370.355
370.355
370.355
370.355
370.356
370.356
370.356
370.356
370.356
370.356
370.357
370.357
370.357
370.357
370.357
370.358
370.358
370.358
370.359
370.359
370.359
370.359
370.36
370.36
370.36
370.361
370.361
370.361
370.362
370.362
370.363
370.363
370.363
370.364
370.364
370.365
370.365
370.366
370.366
370.367
370.367
370.368
370.369
370.369
370.37
370.371
370.371
370.372
370.373
370.373
370.374
370.375
370.376
370.377
370.377
370.378
370.379
370.38
370.381
370.382
370.383
370.384
370.386
370.387
370.388
370.389
370.39
370.392
370.393
370.394
370.396
370.397
370.399
370.4
370.402
370.403
370.405
370.407
370.408
370.41
370.412
370.414
370.415
370.417
370.419
370.421
370.423
370.425
370.427
370.429
370.431
370.434
370.436
370.438
370.44
370.442
370.444
370.446
370.449
370.451
370.453
370.455
370.457
370.459
370.461
370.463
370.464
370.466
370.467
370.469
370.47
370.471
370.471
370.472
370.472
370.472
370.472
370.471
370.469
370.468
370.466
370.463
370.46
370.456
370.451
370.445
370.439
370.432
370.423
370.414
370.414
370.423
370.432
370.439
370.445
370.451
370.456
370.46
370.463
370.466
370.468
370.469
370.471
370.472
370.472
370.472
370.472
370.471
370.471
370.47
370.469
370.467
370.466
370.464
370.463
370.461
370.459
370.457
370.455
370.453
370.451
370.449
370.446
370.444
370.442
370.44
370.438
370.436
370.434
370.431
370.429
370.427
370.425
370.423
370.421
370.419
370.417
370.415
370.414
370.412
370.41
370.408
370.407
370.405
370.403
370.402
370.4
370.399
370.397
370.396
370.394
370.393
370.392
370.39
370.389
370.388
370.387
370.386
370.384
370.383
370.382
370.381
370.38
370.379
370.378
370.377
370.377
370.376
370.375
370.374
370.373
370.373
370.372
370.371
370.371
370.37
370.369
370.369
370.368
370.367
370.367
370.366
370.366
370.365
370.365
370.364
370.364
370.363
370.363
370.363
370.362
370.362
370.361
370.361
370.361
370.36
370.36
370.36
370.359
370.359
370.359
370.359
370.358
370.358
370.358
370.357
370.357
370.357
370.357
370.357
370.356
370.356
370.356
370.356
370.356
370.356
370.355
370.355
370.355
370.355
370.355
370.355
370.354
370.354
370.354
370.354
370.354
370.354
370.354
370.354
370.354
370.353
370.353
370.353
370.353
370.353
370.353
370.353
370.353
370.353
370.514
370.513
370.504
370.49
370.474
370.457
370.44
370.424
370.409
370.395
370.382
370.371
370.361
370.353
370.345
370.338
370.333
370.328
370.323
370.32
370.32
370.323
370.328
370.333
370.338
370.345
370.353
370.361
370.371
370.382
370.395
370.409
370.424
370.44
370.457
370.474
370.49
370.504
370.513
370.514
370.353
370.353
370.353
370.353
370.353
370.353
370.353
370.353
370.353
370.354
370.354
370.354
370.354
370.354
370.354
370.354
370.354
370.354
370.355
370.355
370.355
370.355
370.355
370.355
370.356
370.356
370.356
370.356
370.356
370.356
370.357
370.357
370.357
370.357
370.357
370.358
370.358
370.358
370.359
370.359
370.359
370.359
370.36
370.36
370.36
370.361
370.361
370.361
370.362
370.362
370.363
370.363
370.363
370.364
370.364
370.365
370.365
370.366
370.366
370.367
370.367
370.368
370.369
370.369
370.37
370.371
370.371
370.372
370.373
370.373
370.374
370.375
370.376
370.377
370.377
370.378
370.379
370.38
370.381
370.382
370.383
370.384
370.386
370.387
370.388
370.389
370.39
370.392
370.393
370.394
370.396
370.397
370.399
370.4
370.402
370.403
370.405
370.407
370.408
370.41
370.412
370.414
370.415
370.417
370.419
370.421
370.423
370.425
370.427
370.429
370.431
370.434
370.436
370.438
370.44
370.442
370.444
370.446
370.449
370.451
370.453
370.455
370.457
370.459
370.461
370.463
370.464
370.466
370.467
370.469
370.47
370.471
370.471
370.472
370.472
370.472
370.472
370.471
370.469
370.468
370.466
370.463
370.46
370.456
370.451
370.445
370.439
370.432
370.423
370.414
375.665
385.684
394.744
402.901
410.211
416.729
422.509
427.601
432.055
435.92
439.24
442.059
444.417
446.353
447.903
449.101
449.979
450.566
450.89
450.976
450.848
450.528
450.037
449.393
448.613
447.714
446.71
445.614
444.439
443.196
441.895
440.545
439.155
437.733
436.286
434.82
433.34
431.853
430.362
428.871
427.385
425.907
424.44
422.986
421.547
420.126
418.725
417.344
415.986
414.651
413.34
412.054
410.794
409.56
408.353
407.173
406.019
404.893
403.794
402.722
401.676
400.658
399.666
398.7
397.76
396.845
395.956
395.092
394.252
393.436
392.643
391.874
391.127
390.402
389.698
389.016
388.354
387.713
387.091
386.488
385.904
385.338
384.79
384.259
383.745
383.247
382.765
382.298
381.846
381.409
380.986
380.577
380.18
379.797
379.427
379.068
378.721
378.386
378.062
377.748
377.445
377.152
376.868
376.595
376.33
376.074
375.827
375.588
375.357
375.134
374.918
374.709
374.508
374.314
374.126
373.944
373.769
373.599
373.435
373.277
373.125
372.977
372.835
372.697
372.564
372.436
372.312
372.192
372.077
371.965
371.857
371.753
371.653
371.556
371.462
371.372
371.284
371.2
371.118
371.04
370.964
370.89
370.82
370.751
370.685
370.622
370.56
370.501
370.444
370.388
370.32
370.323
370.328
370.333
370.338
370.345
370.353
370.361
370.371
370.382
370.395
370.409
370.424
370.44
370.457
370.474
370.49
370.504
370.513
370.514
)
;
    }
    frontAndBack
    {
        type            empty;
    }
}


// ************************************************************************* //
